128
 Atoms. Timestep: 0
1 0 0 0
1 1.72764 1.72764 1.72764
1 3.45527 0 0
1 5.1829 1.72764 1.72764
1 6.91054 0 0
1 8.63818 1.72764 1.72764
1 10.3658 0 0
1 12.0934 1.72764 1.72764
1 0 3.45527 0
1 1.72764 5.1829 1.72764
1 3.45527 3.45527 0
1 5.1829 5.1829 1.72764
1 6.91054 3.45527 0
1 8.63818 5.1829 1.72764
1 10.3658 3.45527 0
1 12.0934 5.1829 1.72764
1 0 6.91054 0
1 1.72764 8.63818 1.72764
1 3.45527 6.91054 0
1 5.1829 8.63818 1.72764
1 6.91054 6.91054 0
1 8.63818 8.63818 1.72764
1 10.3658 6.91054 0
1 12.0934 8.63818 1.72764
1 0 10.3658 0
1 1.72764 12.0934 1.72764
1 3.45527 10.3658 0
1 5.1829 12.0934 1.72764
1 6.91054 10.3658 0
1 8.63818 12.0934 1.72764
1 10.3658 10.3658 0
1 12.0934 12.0934 1.72764
1 0 0 3.45527
1 1.72764 1.72764 5.1829
1 3.45527 0 3.45527
1 5.1829 1.72764 5.1829
1 6.91054 0 3.45527
1 8.63818 1.72764 5.1829
1 10.3658 0 3.45527
1 12.0934 1.72764 5.1829
1 0 3.45527 3.45527
1 1.72764 5.1829 5.1829
1 3.45527 3.45527 3.45527
1 5.1829 5.1829 5.1829
1 6.91054 3.45527 3.45527
1 8.63818 5.1829 5.1829
1 10.3658 3.45527 3.45527
1 12.0934 5.1829 5.1829
1 0 6.91054 3.45527
1 1.72764 8.63818 5.1829
1 3.45527 6.91054 3.45527
1 5.1829 8.63818 5.1829
1 6.91054 6.91054 3.45527
1 8.63818 8.63818 5.1829
1 10.3658 6.91054 3.45527
1 12.0934 8.63818 5.1829
1 0 10.3658 3.45527
1 1.72764 12.0934 5.1829
1 3.45527 10.3658 3.45527
1 5.1829 12.0934 5.1829
1 6.91054 10.3658 3.45527
1 8.63818 12.0934 5.1829
1 10.3658 10.3658 3.45527
1 12.0934 12.0934 5.1829
1 0 0 6.91054
1 1.72764 1.72764 8.63818
1 3.45527 0 6.91054
1 5.1829 1.72764 8.63818
1 6.91054 0 6.91054
1 8.63818 1.72764 8.63818
1 10.3658 0 6.91054
1 12.0934 1.72764 8.63818
1 0 3.45527 6.91054
1 1.72764 5.1829 8.63818
1 3.45527 3.45527 6.91054
1 5.1829 5.1829 8.63818
1 6.91054 3.45527 6.91054
1 8.63818 5.1829 8.63818
1 10.3658 3.45527 6.91054
1 12.0934 5.1829 8.63818
1 0 6.91054 6.91054
1 1.72764 8.63818 8.63818
1 3.45527 6.91054 6.91054
1 5.1829 8.63818 8.63818
1 6.91054 6.91054 6.91054
1 8.63818 8.63818 8.63818
1 10.3658 6.91054 6.91054
1 12.0934 8.63818 8.63818
1 0 10.3658 6.91054
1 1.72764 12.0934 8.63818
1 3.45527 10.3658 6.91054
1 5.1829 12.0934 8.63818
1 6.91054 10.3658 6.91054
1 8.63818 12.0934 8.63818
1 10.3658 10.3658 6.91054
1 12.0934 12.0934 8.63818
1 0 0 10.3658
1 1.72764 1.72764 12.0934
1 3.45527 0 10.3658
1 5.1829 1.72764 12.0934
1 6.91054 0 10.3658
1 8.63818 1.72764 12.0934
1 10.3658 0 10.3658
1 12.0934 1.72764 12.0934
1 0 3.45527 10.3658
1 1.72764 5.1829 12.0934
1 3.45527 3.45527 10.3658
1 5.1829 5.1829 12.0934
1 6.91054 3.45527 10.3658
1 8.63818 5.1829 12.0934
1 10.3658 3.45527 10.3658
1 12.0934 5.1829 12.0934
1 0 6.91054 10.3658
1 1.72764 8.63818 12.0934
1 3.45527 6.91054 10.3658
1 5.1829 8.63818 12.0934
1 6.91054 6.91054 10.3658
1 8.63818 8.63818 12.0934
1 10.3658 6.91054 10.3658
1 12.0934 8.63818 12.0934
1 0 10.3658 10.3658
1 1.72764 12.0934 12.0934
1 3.45527 10.3658 10.3658
1 5.1829 12.0934 12.0934
1 6.91054 10.3658 10.3658
1 8.63818 12.0934 12.0934
1 10.3658 10.3658 10.3658
1 12.0934 12.0934 12.0934
128
 Atoms. Timestep: 10000
1 13.8729 -0.101553 0.820705
1 1.69946 0.790206 1.35883
1 3.06361 -0.242094 14.0226
1 5.36733 1.20157 1.11299
1 7.55309 13.9437 0.44409
1 8.74681 1.89514 1.39139
1 10.8974 0.683357 12.6587
1 11.9378 2.00861 1.18068
1 0.0896176 3.26124 0.540979
1 1.69248 5.15075 1.48194
1 3.14838 2.62494 0.166357
1 4.87334 4.79642 2.07976
1 6.74822 3.69395 -0.158634
1 9.48137 4.30071 2.2229
1 10.5686 4.11496 13.7177
1 12.2392 4.63818 1.41048
1 0.454007 9.65616 13.558
1 1.10751 8.80764 1.7206
1 2.8915 7.76406 -0.265641
1 4.0114 9.55958 1.30549
1 6.57859 6.91368 0.568068
1 7.35983 9.48474 0.657196
1 9.81484 7.32608 0.710054
1 13.1094 8.00311 0.944182
1 12.5592 11.6196 0.877285
1 1.3866 12.2205 1.56069
1 3.9306 11.755 12.4005
1 4.71206 12.4911 1.1177
1 6.97915 11.8089 0.0682579
1 8.90866 11.6778 2.15043
1 10.6115 9.786 -0.284092
1 10.6299 13.6123 0.487446
1 13.8299 13.41 3.91821
1 1.69595 1.04438 5.3724
1 3.27741 13.4315 3.23849
1 4.98464 1.41244 4.08287
1 6.96461 -0.139516 3.27453
1 8.80439 1.43292 5.0692
1 10.8462 0.170095 3.27372
1 11.993 0.953204 5.71368
1 13.8936 2.36933 3.16374
1 0.912597 5.3255 5.54366
1 2.6093 3.61982 3.48282
1 5.6174 5.94773 4.95548
1 6.74544 3.3939 3.368
1 8.85659 5.36528 5.35797
1 10.9545 2.74585 4.03847
1 12.1103 4.85383 5.41387
1 13.8983 5.82247 3.37196
1 1.55038 8.65134 5.08873
1 3.8825 7.34284 3.39382
1 5.45534 8.78382 4.99971
1 8.26136 7.40754 3.31005
1 8.92 9.61813 5.05134
1 11.1657 6.32399 2.93274
1 12.5245 8.33721 4.84383
1 0.234488 10.9561 3.78972
1 1.8109 12.3818 5.14425
1 3.1319 10.6583 3.74515
1 6.72915 10.8182 6.03512
1 6.22147 11.1034 3.10809
1 9.31535 13.2603 5.27595
1 10.3026 9.29674 2.44854
1 11.8807 12.0944 5.09009
1 -0.135895 13.3235 6.83687
1 1.7464 1.51173 8.07798
1 4.44193 12.6185 5.93352
1 4.61599 1.8186 8.4416
1 6.26624 -0.0930179 6.61778
1 7.61131 0.886707 9.24416
1 10.2572 -0.260347 7.56131
1 12.2615 1.69751 9.21857
1 14.0165 2.96918 6.48327
1 1.83075 5.00197 8.29856
1 3.87562 3.57367 6.35917
1 5.13147 5.30957 8.35605
1 6.833 3.49827 6.65822
1 8.0891 5.43888 8.77682
1 9.24652 2.8063 7.18456
1 12.4124 4.9542 8.76937
1 13.7615 7.22514 6.815
1 1.67279 8.46219 8.38832
1 3.62116 6.89671 6.6383
1 4.24458 8.22479 8.81887
1 6.80168 7.49383 6.94152
1 8.52768 8.73073 9.21433
1 10.5648 6.75787 6.58297
1 12.6152 8.74021 8.96133
1 -0.214419 10.4674 6.85163
1 2.38483 11.7206 8.4869
1 3.85781 9.77276 6.49944
1 5.03565 13.0757 8.98764
1 6.39761 9.77917 8.32433
1 8.94171 11.5786 7.75087
1 11.5086 10.0633 6.84833
1 12.2336 12.2409 8.80864
1 13.7386 -0.252262 10.944
1 1.30997 1.53606 12.5567
1 2.77026 -0.0675942 10.7079
1 4.50148 1.84884 12.544
1 8.10137 12.7475 10.2064
1 8.07062 1.42105 12.4611
1 10.7671 13.6505 10.1618
1 13.0125 2.29483 12.6618
1 0.0269076 2.95412 9.93987
1 1.81215 4.58458 12.6099
1 3.19365 3.43407 10.5461
1 4.74459 5.13873 12.7594
1 6.35919 3.32398 10.7617
1 8.08644 5.02201 12.5285
1 10.1925 3.40491 9.9339
1 13.9474 6.44972 13.1232
1 14.0871 6.94504 9.9792
1 2.41785 9.22141 11.2266
1 2.72285 6.42636 10.6058
1 5.44978 8.3954 12.238
1 6.00304 6.48196 10.4891
1 8.64758 7.71442 11.9916
1 11.0643 6.59428 10.3903
1 12.3922 8.62172 12.1938
1 14.098 10.3501 10.2032
1 0.779546 12.5805 12.5297
1 4.11038 10.9707 9.77885
1 6.04614 13.4246 12.1494
1 6.59419 10.7898 11.3002
1 9.30215 11.8229 12.7509
1 10.0967 10.5466 10.249
1 12.0457 12.0464 12.1627
128
 Atoms. Timestep: 20000
1 -0.213706 13.3667 0.353437
1 2.79893 -0.184828 1.75124
1 1.87963 14.0198 13.4628
1 4.84994 -0.165062 13.9684
1 7.939 12.3066 12.6446
1 7.46439 13.664 0.641711
1 12.2015 0.887947 13.2832
1 9.61395 2.11482 13.7465
1 0.312747 1.62625 0.0146108
1 2.18404 5.69602 3.22569
1 3.19268 2.15865 0.350703
1 5.11457 4.18765 1.77889
1 5.13286 4.40523 12.9132
1 6.93696 2.00049 0.170337
1 8.39003 5.65427 12.1583
1 8.15798 4.98441 0.322993
1 0.836365 10.4208 13.6923
1 1.63595 8.8525 1.64457
1 5.73615 9.4789 13.8198
1 3.42475 11.8589 0.506774
1 6.53743 6.2474 2.84193
1 8.31945 7.51701 1.53734
1 9.0009 8.57192 13.1551
1 11.2277 7.81286 1.99461
1 13.2632 10.2411 2.09372
1 0.868995 12.4139 2.61777
1 5.08689 12.5945 11.917
1 5.87869 11.2657 1.78376
1 8.17606 10.1706 0.117263
1 9.81332 12.0822 2.00705
1 10.9577 10.154 0.481423
1 10.354 12.9725 13.242
1 12.3695 12.7391 3.73393
1 3.10168 2.25652 7.66596
1 2.44383 0.0567111 4.3658
1 4.76549 1.60295 2.27325
1 7.40526 13.749 4.24745
1 8.55735 1.92171 2.30259
1 11.5133 13.7842 1.07291
1 12.4723 0.488392 7.05022
1 13.2618 0.812218 3.44557
1 -0.154904 3.84787 5.05325
1 1.96818 2.61727 3.53915
1 4.31434 4.21214 4.88293
1 7.26477 3.67691 4.04283
1 11.5711 3.07913 5.00384
1 11.871 2.15361 2.03548
1 11.7388 5.97747 4.05086
1 13.9656 4.09003 2.37386
1 2.76786 8.00605 4.59711
1 4.6407 8.08263 1.9411
1 5.86549 7.56039 5.72996
1 8.62918 5.57716 5.90268
1 9.05931 8.41 4.55568
1 9.52169 4.91508 2.29798
1 13.9826 7.33701 3.13464
1 0.414625 9.97999 4.27562
1 1.73184 11.8557 5.33577
1 3.65871 10.9816 3.47224
1 4.56699 13.3874 3.45386
1 7.12089 9.25835 3.10756
1 10.2874 0.341077 4.62518
1 10.8014 10.4453 3.52081
1 12.9126 11.9095 6.37225
1 12.4101 1.9263 9.74377
1 0.0589116 3.38571 7.78819
1 5.90347 1.1913 5.71398
1 5.56629 1.25656 8.47286
1 7.16273 13.5654 7.16455
1 8.20642 1.97754 9.29497
1 10.4271 13.9253 8.04557
1 13.2816 4.80395 10.9352
1 12.3247 5.10835 7.91619
1 2.31802 5.02561 7.48068
1 5.43369 3.88466 10.0258
1 3.42458 6.59853 11.7698
1 8.50176 2.07601 6.42092
1 7.80722 5.28451 9.61506
1 10.2694 3.36417 7.86153
1 10.7242 6.44647 11.4044
1 0.335338 6.26932 5.99851
1 2.11472 8.26773 8.92419
1 4.97453 6.67756 9.23068
1 5.47001 11.4302 8.72004
1 6.43831 4.40341 7.26278
1 9.68919 9.87096 7.17643
1 10.1095 7.32734 7.76916
1 12.6009 7.70245 9.63151
1 -0.0942955 9.99395 7.35819
1 0.827317 -0.092832 7.04546
1 3.86616 9.5013 7.63522
1 4.42188 12.844 6.55401
1 6.47534 11.1432 5.61119
1 9.58472 12.0498 5.29613
1 11.8647 8.62246 5.79143
1 12.0119 10.427 9.18501
1 13.2689 12.8006 9.39389
1 -0.0817325 1.3077 11.4857
1 1.28113 0.329076 9.72743
1 5.00504 1.2192 11.8352
1 8.69158 11.8462 9.30866
1 7.67515 0.248275 12.6715
1 10.2882 -0.100582 10.8189
1 13.0845 3.88072 13.7325
1 1.20106 5.46093 9.98107
1 1.22686 4.26706 13.5709
1 2.68919 3.25871 11.2066
1 2.81473 6.63624 0.378353
1 7.77862 2.90963 11.634
1 6.43182 7.03832 11.2373
1 10.8663 3.20628 11.6486
1 13.9111 7.04793 0.276562
1 0.0275525 7.36877 11.6471
1 2.65474 8.69298 12.6951
1 4.43934 9.1677 10.3184
1 6.33103 6.74507 14.0103
1 7.2032 8.23131 8.17847
1 7.55127 9.71706 11.562
1 9.1384 7.99961 10.2373
1 10.9683 6.04574 -0.129276
1 0.0544202 10.1996 10.6063
1 1.52325 12.305 11.5249
1 2.53578 11.8717 9.30012
1 6.51458 13.4785 10.208
1 3.83229 13.8384 10.2603
1 10.2136 10.3486 11.5638
1 12.3126 8.82268 12.979
1 12.7722 11.9818 12.5054
128
 Atoms. Timestep: 30000
1 13.743 12.3834 0.824936
1 2.17279 2.80504 1.13105
1 4.55493 0.403206 0.172747
1 6.90581 13.0728 12.6084
1 9.69489 13.8432 13.5008
1 7.43142 1.41121 2.20773
1 10.6927 1.6765 0.933556
1 9.29151 5.00383 1.82324
1 13.4501 1.60218 1.56778
1 2.0924 7.54391 6.04036
1 2.24006 2.33962 12.6236
1 2.57157 5.19762 13.9938
1 4.96113 4.18146 12.3085
1 8.24154 2.42743 13.8595
1 8.67661 3.93983 11.5969
1 6.90726 5.1635 -0.0200267
1 12.9102 6.47287 0.112105
1 3.4862 9.30234 0.157129
1 8.7266 9.42493 12.5237
1 2.80239 12.2453 14.0075
1 5.40419 6.17577 1.63635
1 11.0001 8.28142 3.09807
1 8.43981 6.70405 12.8948
1 12.7316 9.14108 0.810829
1 1.69804 10.7381 1.71752
1 0.256163 12.2066 5.39708
1 4.18923 13.691 11.5531
1 6.10427 12.2335 0.968799
1 9.31906 10.6317 1.85005
1 8.58971 13.7603 1.49754
1 10.8019 7.60135 13.9864
1 12.052 10.8851 13.2511
1 11.7961 11.345 2.56914
1 4.11757 1.97698 9.31388
1 2.42873 0.677068 4.59295
1 4.75789 3.46151 0.908689
1 4.58632 0.610249 2.81757
1 10.2203 2.31729 3.91988
1 11.64 -0.0560492 3.12777
1 0.559234 0.556548 6.99769
1 13.1712 1.43382 5.22386
1 0.879665 3.30858 3.71666
1 2.71909 5.63216 3.05161
1 4.02408 3.04461 4.32818
1 6.48472 4.15061 3.43519
1 10.4035 1.61199 6.44476
1 12.1683 3.82464 2.31506
1 13.5583 4.84521 5.48105
1 0.103803 5.71997 3.32463
1 3.08323 9.5606 8.38074
1 6.11765 8.87794 13.7707
1 5.28093 6.0222 5.71925
1 8.07757 3.59639 5.72907
1 8.23516 6.43196 4.55941
1 11.1817 5.89351 4.4751
1 2.78436 4.81164 5.76958
1 1.1257 10.0671 5.59826
1 1.40079 11.9099 8.27639
1 3.9299 11.9857 3.12145
1 1.32293 13.9082 2.31812
1 6.90242 9.66941 3.3084
1 11.6466 13.6725 5.97548
1 9.56345 11.7323 5.21319
1 12.0191 10.3011 5.19175
1 12.11 0.0428387 12.653
1 2.23701 2.55734 7.82623
1 4.72184 1.62401 6.55628
1 6.16508 -0.0976938 9.63346
1 6.04841 13.0216 4.12144
1 7.40568 1.49707 7.77394
1 13.0513 13.1078 8.30588
1 1.07344 2.50374 10.2472
1 13.5712 2.56562 7.5
1 2.5962 7.13518 8.96583
1 4.39719 5.51257 9.98788
1 3.43047 8.63714 11.0003
1 8.39095 0.167905 4.62491
1 7.78517 5.64781 7.56658
1 11.6242 1.25654 9.08359
1 9.41222 3.57858 9.1149
1 13.7946 7.86949 5.79738
1 0.46974 7.99813 10.3259
1 5.34391 8.16979 8.66688
1 4.80553 11.2718 9.20779
1 4.82804 4.46412 8.08958
1 8.92124 10.6417 7.67894
1 6.40733 8.86167 6.05552
1 9.95597 8.39018 6.4159
1 0.217807 9.43778 7.98957
1 -0.207272 -0.200092 10.1605
1 3.86388 12.9131 6.63708
1 2.42528 -0.168323 9.40201
1 4.01336 8.71945 3.2844
1 7.12074 13.0455 7.13748
1 13.9881 9.48624 3.24586
1 11.6222 10.7327 8.12719
1 13.5966 10.7605 10.6898
1 13.6436 2.2271 12.8708
1 0.635063 -0.147276 13.0897
1 8.39628 0.593866 10.6066
1 9.23387 13.9953 8.14355
1 10.8086 2.15782 11.7742
1 10.9001 12.8654 10.3559
1 0.176577 4.22216 0.679446
1 0.838674 5.07827 7.84016
1 13.5303 5.13176 12.009
1 2.17826 4.77534 10.8352
1 4.97688 6.9935 12.9514
1 6.26629 3.28788 9.79742
1 6.92728 5.86998 10.6825
1 12.2625 4.60421 9.55585
1 1.08697 7.93875 1.40545
1 11.5877 5.0595 6.89823
1 1.12759 7.45336 12.9154
1 5.11466 10.6344 12.2042
1 8.35822 7.80451 1.53461
1 4.66684 10.4196 5.74487
1 6.70598 8.64512 10.8353
1 8.80243 8.08844 8.71338
1 10.5418 4.64698 13.7497
1 12.2279 7.76624 9.03233
1 0.619831 10.3638 13.5776
1 2.11084 11.2652 10.3276
1 8.10433 12.2371 10.4782
1 5.81219 1.58778 11.9797
1 10.2494 9.38316 10.2883
1 10.4811 6.68746 11.1671
1 12.56 7.76511 11.9287
128
 Atoms. Timestep: 40000
1 11.7042 11.3293 1.40126
1 4.62407 12.6367 0.637563
1 5.91861 0.825795 13.5546
1 7.23304 11.9564 13.9137
1 9.8461 9.58509 13.9783
1 10.0211 2.2468 -0.069937
1 11.1855 13.498 13.147
1 8.56483 6.5895 1.62434
1 13.2555 0.902695 -0.0941804
1 2.21142 6.97338 5.40607
1 2.1294 3.13238 11.1797
1 4.93275 3.50418 0.135773
1 4.8695 3.59168 12.172
1 8.38018 14.0152 12.1337
1 7.6914 3.35369 11.887
1 7.45993 4.47739 0.0854284
1 13.4845 4.59618 1.42449
1 6.31888 8.16717 1.2656
1 8.46992 8.07968 9.84932
1 3.91817 8.95048 13.1653
1 5.87709 5.4006 2.49808
1 9.4859 9.64135 5.89531
1 8.16813 7.00263 12.7306
1 0.668323 10.7847 3.34305
1 2.23827 10.4799 0.838986
1 0.407402 12.6636 5.24931
1 2.43396 13.173 12.0618
1 6.26242 13.1924 2.54175
1 10.3894 13.1633 3.5015
1 8.0234 0.0455114 0.844935
1 11.6934 6.99268 0.262544
1 12.6867 10.5867 12.7372
1 10.264 1.44593 2.27071
1 2.14851 3.83782 8.17794
1 -0.0154424 1.98523 3.21011
1 2.71037 1.48981 13.4276
1 7.70638 2.41917 1.20903
1 11.1762 6.72594 3.82014
1 11.4728 3.35008 4.33883
1 13.6696 1.20637 9.18006
1 -0.0187461 4.33434 3.92427
1 2.18812 3.4795 1.85433
1 5.2817 3.51788 4.15667
1 4.80655 1.49938 2.94584
1 8.89441 3.5893 3.3473
1 11.2394 2.02048 7.80554
1 10.5037 4.77062 1.31646
1 12.0463 5.24561 6.2592
1 0.372008 7.10929 3.55717
1 2.54869 9.3296 9.94577
1 8.02441 10.7319 2.52657
1 5.19376 6.38144 5.27925
1 6.91013 2.81296 6.32512
1 8.60719 6.07298 4.72949
1 12.5387 8.63162 1.96427
1 2.43579 4.07653 5.23889
1 2.19602 10.6616 6.12372
1 0.463412 11.4416 9.93926
1 3.33388 12.7701 3.3823
1 13.0792 13.3583 2.7122
1 6.80231 8.77539 3.90721
1 12.3624 0.462044 5.32784
1 10.7381 11.9646 6.46768
1 11.9792 10.4398 4.44375
1 9.97951 11.4004 11.9229
1 4.2847 1.65489 6.68451
1 1.98631 1.28734 5.31442
1 2.78785 0.688279 9.58676
1 7.97167 12.0214 5.53652
1 6.39282 13.9809 8.00047
1 12.8269 13.4255 7.96473
1 12.9864 3.5935 9.7137
1 14.0785 2.16181 6.49318
1 0.661099 8.01604 8.38637
1 3.5042 5.70086 10.6855
1 5.392 8.32077 9.95817
1 7.56958 1.24529 3.49469
1 7.37045 5.34767 7.41674
1 11.2869 -0.128264 10.2076
1 8.0971 1.72637 9.55194
1 13.3647 7.69668 5.84772
1 14.0475 8.73 10.5627
1 4.61981 8.96707 7.29119
1 3.56214 12.7694 8.57656
1 3.83028 6.2171 7.54332
1 6.77559 11.256 7.71703
1 7.13887 8.3664 6.97081
1 10.2875 7.29431 7.28323
1 0.0107632 10.3315 7.5801
1 14.0522 1.58363 11.8447
1 1.21785 13.951 7.84311
1 0.229073 12.6138 -0.047673
1 4.86683 10.3748 1.13958
1 5.16235 13.6225 5.68092
1 3.62211 8.39782 3.04198
1 11.6412 9.28931 8.10334
1 13.5086 13.092 11.6187
1 13.1952 4.3681 12.8754
1 2.37955 -0.0416075 1.93623
1 9.50565 13.0495 8.43246
1 9.73469 0.513254 5.67851
1 10.7774 2.59068 11.4446
1 11.9137 11.3137 10.0062
1 2.71815 5.77695 2.86484
1 0.12737 5.45764 6.77281
1 0.171845 5.67885 10.0895
1 2.01888 4.6845 13.3279
1 5.3667 6.55846 13.3931
1 5.51306 3.0468 9.58282
1 6.92137 5.36 10.8958
1 11.247 6.27621 11.1491
1 2.74115 6.56819 0.605043
1 9.35537 3.61264 6.58509
1 2.19926 7.20217 11.9506
1 3.93303 11.2559 12.131
1 9.97999 8.58656 3.26007
1 5.07226 11.1614 3.71143
1 7.1583 10.0727 12.0784
1 9.40348 10.3394 8.82344
1 9.64422 5.06135 13.5281
1 12.4936 6.69261 9.01436
1 0.37157 8.16097 -0.0966607
1 1.12436 10.2211 12.4317
1 7.5228 12.1884 10.2965
1 5.35621 -0.113175 11.0003
1 10.8451 8.91898 11.3961
1 9.28826 4.85312 9.20515
1 13.4857 7.0044 12.247
