
     Program PWSCF v.5.0.2 (svn rev. 9656) starts on  6May2019 at 19:29:35 

     This program is part of the open-source Quantum ESPRESSO suite
     for quantum simulation of materials; please cite
         "P. Giannozzi et al., J. Phys.:Condens. Matter 21 395502 (2009);
          URL http://www.quantum-espresso.org", 
     in publications or presentations arising from this work. More details at
     http://www.quantum-espresso.org/quote.php

     Parallel version (MPI), running on    10 processors
     R & G space division:  proc/nbgrp/npool/nimage =      10

     Current dimensions of program PWSCF are:
     Max number of different atomic species (ntypx) = 10
     Max number of k-points (npk) =  40000
     Max angular momentum in pseudopotentials (lmaxx) =  3
     Reading input from al.md.in
               file Al.GGA-PBE-paw-20Ry.UPF: wavefunction(s)  Xn renormalized

     gamma-point specific algorithms are used

     Subspace diagonalization in iterative solution of the eigenvalue problem:
     a serial algorithm will be used


     Parallelization info
     --------------------
     sticks:   dense  smooth     PW     G-vecs:    dense   smooth      PW
     Min         235     235     57                 8652     8652    1078
     Max         238     238     60                 8662     8662    1084
     Sum        2361    2361    593                86551    86551   10827
     Tot        1181    1181    297



     bravais-lattice index     =            1
     lattice parameter (alat)  =      19.2801  a.u.
     unit-cell volume          =    7166.8490 (a.u.)^3
     number of atoms/cell      =           64
     number of atomic types    =            1
     number of electrons       =       192.00
     number of Kohn-Sham states=          220
     kinetic-energy cutoff     =      20.0000  Ry
     charge density cutoff     =      80.0000  Ry
     convergence threshold     =      1.0E-08
     mixing beta               =       0.7000
     number of iterations used =            8  plain     mixing
     Exchange-correlation      = SLA PW PBX PBC ( 1 4 3 4 0)
     EXX-fraction              =        0.00
     nstep                     =        10000


     celldm(1)=  19.280106  celldm(2)=   0.000000  celldm(3)=   0.000000
     celldm(4)=   0.000000  celldm(5)=   0.000000  celldm(6)=   0.000000

     crystal axes: (cart. coord. in units of alat)
               a(1) = (   1.000000   0.000000   0.000000 )  
               a(2) = (   0.000000   1.000000   0.000000 )  
               a(3) = (   0.000000   0.000000   1.000000 )  

     reciprocal axes: (cart. coord. in units 2 pi/alat)
               b(1) = (  1.000000  0.000000  0.000000 )  
               b(2) = (  0.000000  1.000000  0.000000 )  
               b(3) = (  0.000000  0.000000  1.000000 )  


     PseudoPot. # 1 for Al read from file:
     ./Al.GGA-PBE-paw-20Ry.UPF
     MD5 check sum: 46b20d30a1ed24ce5082dbda022eccce
     Pseudo is Projector augmented-wave + core cor, Zval =  3.0
     Generated using ATOMPAW code
     Shape of augmentation charge: BESSEL
     Using radial grid of 2342 points,  2 beta functions with: 
                l(1) =   0
                l(2) =   1
     Q(r) pseudized with 0 coefficients 


     atomic species   valence    mass     pseudopotential
        Al             3.00    26.98000     Al( 1.00)

     No symmetry found


                                    s                        frac. trans.

      isym =  1     identity                                     

 cryst.   s( 1) = (     1          0          0      )
                  (     0          1          0      )
                  (     0          0          1      )

 cart.    s( 1) = (  1.0000000  0.0000000  0.0000000 )
                  (  0.0000000  1.0000000  0.0000000 )
                  (  0.0000000  0.0000000  1.0000000 )


     point group C_1 (1)    
     there are  1 classes
     the character table:

       E    
A      1.00

     the symmetry operations in each class:
     E        1

   Cartesian axes

     site n.     atom                  positions (alat units)
         1           Al  tau(   1) = (   0.6890193  -0.3387285   0.5409704  )
         2           Al  tau(   2) = (  -0.2602189  -0.5849915   0.6557822  )
         3           Al  tau(   3) = (   0.2756314   0.7632867   1.7058062  )
         4           Al  tau(   4) = (   0.2530849  -0.9244979   1.2268282  )
         5           Al  tau(   5) = (   1.3237831   0.7705755  -0.8140014  )
         6           Al  tau(   6) = (   0.0908169   0.3908950   0.0526789  )
         7           Al  tau(   7) = (  -0.2247993   0.7542959   0.0421891  )
         8           Al  tau(   8) = (   0.2691278  -0.1757231   0.9444785  )
         9           Al  tau(   9) = (  -0.5681870   0.2883536  -1.4194075  )
        10           Al  tau(  10) = (   1.2186126   1.1094521  -0.5028165  )
        11           Al  tau(  11) = (  -1.2287775   0.7703624  -0.2430666  )
        12           Al  tau(  12) = (   0.5587518   0.6542901   0.8117841  )
        13           Al  tau(  13) = (  -0.3280048   0.9534086  -0.5064612  )
        14           Al  tau(  14) = (   0.0435589   0.9338195  -0.2271020  )
        15           Al  tau(  15) = (  -0.1930771   1.2207841   0.0093939  )
        16           Al  tau(  16) = (  -1.0054494   0.8952219   1.0265661  )
        17           Al  tau(  17) = (   0.4990792   0.3863122  -0.1173472  )
        18           Al  tau(  18) = (  -0.0160692  -0.3694664   1.0521702  )
        19           Al  tau(  19) = (  -0.0810979   1.0033039   0.4955168  )
        20           Al  tau(  20) = (   0.8985525  -0.7714374   0.4803873  )
        21           Al  tau(  21) = (  -0.0425013   0.1559782   0.7494302  )
        22           Al  tau(  22) = (  -0.7159149  -0.4346445   1.8250105  )
        23           Al  tau(  23) = (   0.6382498   0.1792949   0.5373722  )
        24           Al  tau(  24) = (   0.4619197   0.1314599   0.8164941  )
        25           Al  tau(  25) = (  -0.8492651   0.5652594   0.3019232  )
        26           Al  tau(  26) = (   0.5518906   1.3807604   0.1380962  )
        27           Al  tau(  27) = (   0.7654781   0.2189085   0.2606407  )
        28           Al  tau(  28) = (  -0.2582988   0.9950816   0.1916260  )
        29           Al  tau(  29) = (   1.4317692   0.5031215  -0.6729407  )
        30           Al  tau(  30) = (   0.5002438  -0.0608829   0.1763171  )
        31           Al  tau(  31) = (   1.0928938   1.1258954   0.9836400  )
        32           Al  tau(  32) = (   0.2862715   0.5280507   1.0978709  )
        33           Al  tau(  33) = (   0.2438302   0.2695883  -0.1742094  )
        34           Al  tau(  34) = (   0.2330711  -1.1718446   0.4272724  )
        35           Al  tau(  35) = (   0.2566088  -0.9546705   0.7193805  )
        36           Al  tau(  36) = (   1.2439671   0.3263574   0.3118673  )
        37           Al  tau(  37) = (   1.3237675   0.0638627   0.9805353  )
        38           Al  tau(  38) = (  -0.5095851   0.2174602   0.2985526  )
        39           Al  tau(  39) = (   0.2325352  -0.4829689   0.5760310  )
        40           Al  tau(  40) = (  -0.0291178   0.4510905   0.5554767  )
        41           Al  tau(  41) = (   0.8416447   0.4894654  -0.8331374  )
        42           Al  tau(  42) = (  -0.5379645   0.7478144   0.4658319  )
        43           Al  tau(  43) = (   0.6943271   0.2038807  -0.2226590  )
        44           Al  tau(  44) = (   0.7584313   1.4703806   0.9099907  )
        45           Al  tau(  45) = (   1.0157492   0.0967161   0.2425855  )
        46           Al  tau(  46) = (   0.1273861   1.3062368   0.6258389  )
        47           Al  tau(  47) = (  -0.0007058  -0.2363848   0.5530800  )
        48           Al  tau(  48) = (   0.5179215   0.8532414   0.6916065  )
        49           Al  tau(  49) = (   0.6121678   0.6372329   0.2517242  )
        50           Al  tau(  50) = (   0.8062887   0.7796038  -0.7136253  )
        51           Al  tau(  51) = (  -0.0715993  -0.4395536   1.3655621  )
        52           Al  tau(  52) = (   0.5906537  -0.8235146   1.0264884  )
        53           Al  tau(  53) = (   0.9716456   0.3428544  -0.6975049  )
        54           Al  tau(  54) = (   0.0505878  -0.1744327   0.2380996  )
        55           Al  tau(  55) = (   1.6240322   0.3967633   0.4200880  )
        56           Al  tau(  56) = (   1.0318439   0.4536041   0.8020458  )
        57           Al  tau(  57) = (   1.0273510   0.7050246  -0.1916109  )
        58           Al  tau(  58) = (   0.7807644   0.9864449   0.9302575  )
        59           Al  tau(  59) = (   0.4566954   0.5496439   1.6292438  )
        60           Al  tau(  60) = (   0.3361018   0.3066838   1.0617936  )
        61           Al  tau(  61) = (   1.5594043   0.9002951  -0.0420799  )
        62           Al  tau(  62) = (   0.4540361   1.0249597  -0.5756820  )
        63           Al  tau(  63) = (   0.4984715   0.6812796   0.0461881  )
        64           Al  tau(  64) = (   0.7826147   1.0050852   0.7011386  )

   Crystallographic axes

     site n.     atom                  positions (cryst. coord.)
         1           Al  tau(   1) = (  0.6890193 -0.3387285  0.5409704  )
         2           Al  tau(   2) = ( -0.2602189 -0.5849915  0.6557822  )
         3           Al  tau(   3) = (  0.2756314  0.7632867  1.7058062  )
         4           Al  tau(   4) = (  0.2530849 -0.9244979  1.2268282  )
         5           Al  tau(   5) = (  1.3237831  0.7705755 -0.8140014  )
         6           Al  tau(   6) = (  0.0908169  0.3908950  0.0526789  )
         7           Al  tau(   7) = ( -0.2247993  0.7542959  0.0421891  )
         8           Al  tau(   8) = (  0.2691278 -0.1757231  0.9444785  )
         9           Al  tau(   9) = ( -0.5681870  0.2883536 -1.4194075  )
        10           Al  tau(  10) = (  1.2186126  1.1094521 -0.5028165  )
        11           Al  tau(  11) = ( -1.2287775  0.7703624 -0.2430666  )
        12           Al  tau(  12) = (  0.5587518  0.6542901  0.8117841  )
        13           Al  tau(  13) = ( -0.3280048  0.9534086 -0.5064612  )
        14           Al  tau(  14) = (  0.0435589  0.9338195 -0.2271020  )
        15           Al  tau(  15) = ( -0.1930771  1.2207841  0.0093939  )
        16           Al  tau(  16) = ( -1.0054494  0.8952219  1.0265661  )
        17           Al  tau(  17) = (  0.4990792  0.3863122 -0.1173472  )
        18           Al  tau(  18) = ( -0.0160692 -0.3694664  1.0521702  )
        19           Al  tau(  19) = ( -0.0810979  1.0033039  0.4955168  )
        20           Al  tau(  20) = (  0.8985525 -0.7714374  0.4803873  )
        21           Al  tau(  21) = ( -0.0425013  0.1559782  0.7494302  )
        22           Al  tau(  22) = ( -0.7159149 -0.4346445  1.8250105  )
        23           Al  tau(  23) = (  0.6382498  0.1792949  0.5373722  )
        24           Al  tau(  24) = (  0.4619197  0.1314599  0.8164941  )
        25           Al  tau(  25) = ( -0.8492651  0.5652594  0.3019232  )
        26           Al  tau(  26) = (  0.5518906  1.3807604  0.1380962  )
        27           Al  tau(  27) = (  0.7654781  0.2189085  0.2606407  )
        28           Al  tau(  28) = ( -0.2582988  0.9950816  0.1916260  )
        29           Al  tau(  29) = (  1.4317692  0.5031215 -0.6729407  )
        30           Al  tau(  30) = (  0.5002438 -0.0608829  0.1763171  )
        31           Al  tau(  31) = (  1.0928938  1.1258954  0.9836400  )
        32           Al  tau(  32) = (  0.2862715  0.5280507  1.0978709  )
        33           Al  tau(  33) = (  0.2438302  0.2695883 -0.1742094  )
        34           Al  tau(  34) = (  0.2330711 -1.1718446  0.4272724  )
        35           Al  tau(  35) = (  0.2566088 -0.9546705  0.7193805  )
        36           Al  tau(  36) = (  1.2439671  0.3263574  0.3118673  )
        37           Al  tau(  37) = (  1.3237675  0.0638627  0.9805353  )
        38           Al  tau(  38) = ( -0.5095851  0.2174602  0.2985526  )
        39           Al  tau(  39) = (  0.2325352 -0.4829689  0.5760310  )
        40           Al  tau(  40) = ( -0.0291178  0.4510905  0.5554767  )
        41           Al  tau(  41) = (  0.8416447  0.4894654 -0.8331374  )
        42           Al  tau(  42) = ( -0.5379645  0.7478144  0.4658319  )
        43           Al  tau(  43) = (  0.6943271  0.2038807 -0.2226590  )
        44           Al  tau(  44) = (  0.7584313  1.4703806  0.9099907  )
        45           Al  tau(  45) = (  1.0157492  0.0967161  0.2425855  )
        46           Al  tau(  46) = (  0.1273861  1.3062368  0.6258389  )
        47           Al  tau(  47) = ( -0.0007058 -0.2363848  0.5530800  )
        48           Al  tau(  48) = (  0.5179215  0.8532414  0.6916065  )
        49           Al  tau(  49) = (  0.6121678  0.6372329  0.2517242  )
        50           Al  tau(  50) = (  0.8062887  0.7796038 -0.7136253  )
        51           Al  tau(  51) = ( -0.0715993 -0.4395536  1.3655621  )
        52           Al  tau(  52) = (  0.5906537 -0.8235146  1.0264884  )
        53           Al  tau(  53) = (  0.9716456  0.3428544 -0.6975049  )
        54           Al  tau(  54) = (  0.0505878 -0.1744327  0.2380996  )
        55           Al  tau(  55) = (  1.6240322  0.3967633  0.4200880  )
        56           Al  tau(  56) = (  1.0318439  0.4536041  0.8020458  )
        57           Al  tau(  57) = (  1.0273510  0.7050246 -0.1916109  )
        58           Al  tau(  58) = (  0.7807644  0.9864449  0.9302575  )
        59           Al  tau(  59) = (  0.4566954  0.5496439  1.6292438  )
        60           Al  tau(  60) = (  0.3361018  0.3066838  1.0617936  )
        61           Al  tau(  61) = (  1.5594043  0.9002951 -0.0420799  )
        62           Al  tau(  62) = (  0.4540361  1.0249597 -0.5756820  )
        63           Al  tau(  63) = (  0.4984715  0.6812796  0.0461881  )
        64           Al  tau(  64) = (  0.7826147  1.0050852  0.7011386  )

     number of k points=     1  Fermi-Dirac smearing, width (Ry)=  0.0367
                       cart. coord. in units 2pi/alat
        k(    1) = (   0.0000000   0.0000000   0.0000000), wk =   2.0000000

                       cryst. coord.
        k(    1) = (   0.0000000   0.0000000   0.0000000), wk =   2.0000000

     Dense  grid:    43276 G-vectors     FFT dimensions: (  60,  60,  60)

     Largest allocated arrays     est. size (Mb)     dimensions
        Kohn-Sham Wavefunctions         1.82 Mb     (    542,  220)
        NL pseudopotentials             2.12 Mb     (    542,  256)
        Each V/rho on FFT grid          0.33 Mb     (  21600)
        Each G-vector array             0.03 Mb     (   4328)
        G-vector shells                 0.00 Mb     (    576)
     Largest temporary arrays     est. size (Mb)     dimensions
        Auxiliary wavefunctions         3.64 Mb     (    542,  880)
        Each subspace H/S matrix        5.91 Mb     ( 880, 880)
        Each <psi_i|beta_j> matrix      0.43 Mb     (    256,  220)
        Arrays for rho mixing           2.64 Mb     (  21600,   8)

     Initial potential from superposition of free atoms

     starting charge  191.84143, renormalised to  192.00000
     Starting wfc are  256 randomized atomic wfcs
     Checking if some PAW data can be deallocated... 

     total cpu time spent up to now is        2.6 secs

     per-process dynamical memory:    15.4 Mb

     Self-consistent Calculation

     iteration #  1     ecut=    20.00 Ry     beta=0.70
     Davidson diagonalization with overlap
     ethr =  1.00E-02,  avg # of iterations =  5.0

     Threshold (ethr) on eigenvalues was too large:
     Diagonalizing with lowered threshold

     Davidson diagonalization with overlap
     ethr =  9.56E-04,  avg # of iterations =  1.0

     total cpu time spent up to now is       12.5 secs

     total energy              =   -2520.89341776 Ry
     Harris-Foulkes estimate   =   -2522.02054069 Ry
     estimated scf accuracy    <       1.84134623 Ry

     iteration #  2     ecut=    20.00 Ry     beta=0.70
     Davidson diagonalization with overlap
     ethr =  9.59E-04,  avg # of iterations =  4.0

     total cpu time spent up to now is       18.4 secs

     total energy              =   -2518.85469499 Ry
     Harris-Foulkes estimate   =   -2523.95494724 Ry
     estimated scf accuracy    <      21.87603318 Ry

     iteration #  3     ecut=    20.00 Ry     beta=0.70
     Davidson diagonalization with overlap
     ethr =  9.59E-04,  avg # of iterations =  4.0

     total cpu time spent up to now is       23.9 secs

     total energy              =   -2521.05493163 Ry
     Harris-Foulkes estimate   =   -2522.25478861 Ry
     estimated scf accuracy    <       5.87152291 Ry

     iteration #  4     ecut=    20.00 Ry     beta=0.70
     Davidson diagonalization with overlap
     ethr =  9.59E-04,  avg # of iterations =  2.0

     total cpu time spent up to now is       27.7 secs

     total energy              =   -2521.62628586 Ry
     Harris-Foulkes estimate   =   -2521.84391625 Ry
     estimated scf accuracy    <       0.79852620 Ry

     iteration #  5     ecut=    20.00 Ry     beta=0.70
     Davidson diagonalization with overlap
     ethr =  4.16E-04,  avg # of iterations =  2.0

     negative rho (up, down):  0.870E-05 0.000E+00

     total cpu time spent up to now is       31.1 secs

     total energy              =   -2521.71922911 Ry
     Harris-Foulkes estimate   =   -2521.77648532 Ry
     estimated scf accuracy    <       0.16449946 Ry

     iteration #  6     ecut=    20.00 Ry     beta=0.70
     Davidson diagonalization with overlap
     ethr =  8.57E-05,  avg # of iterations =  3.0

     negative rho (up, down):  0.441E-04 0.000E+00

     total cpu time spent up to now is       35.4 secs

     total energy              =   -2521.72083808 Ry
     Harris-Foulkes estimate   =   -2521.78823869 Ry
     estimated scf accuracy    <       0.34245537 Ry

     iteration #  7     ecut=    20.00 Ry     beta=0.70
     Davidson diagonalization with overlap
     ethr =  8.57E-05,  avg # of iterations =  2.0

     negative rho (up, down):  0.198E-03 0.000E+00

     total cpu time spent up to now is       38.9 secs

     total energy              =   -2521.75256373 Ry
     Harris-Foulkes estimate   =   -2521.76475547 Ry
     estimated scf accuracy    <       0.05218556 Ry

     iteration #  8     ecut=    20.00 Ry     beta=0.70
     Davidson diagonalization with overlap
     ethr =  2.72E-05,  avg # of iterations =  1.0

     negative rho (up, down):  0.288E-03 0.000E+00

     total cpu time spent up to now is       42.2 secs

     total energy              =   -2521.75797601 Ry
     Harris-Foulkes estimate   =   -2521.75948400 Ry
     estimated scf accuracy    <       0.00417989 Ry

     iteration #  9     ecut=    20.00 Ry     beta=0.70
     Davidson diagonalization with overlap
     ethr =  2.18E-06,  avg # of iterations =  6.0

     negative rho (up, down):  0.336E-03 0.000E+00

     total cpu time spent up to now is       48.1 secs

     total energy              =   -2521.75820254 Ry
     Harris-Foulkes estimate   =   -2521.75965316 Ry
     estimated scf accuracy    <       0.00728841 Ry

     iteration # 10     ecut=    20.00 Ry     beta=0.70
     Davidson diagonalization with overlap
     ethr =  2.18E-06,  avg # of iterations =  2.0

     negative rho (up, down):  0.359E-03 0.000E+00

     total cpu time spent up to now is       51.7 secs

     total energy              =   -2521.75880697 Ry
     Harris-Foulkes estimate   =   -2521.75921533 Ry
     estimated scf accuracy    <       0.00181671 Ry

     iteration # 11     ecut=    20.00 Ry     beta=0.70
     Davidson diagonalization with overlap
     ethr =  9.46E-07,  avg # of iterations =  1.0

     negative rho (up, down):  0.355E-03 0.000E+00

     total cpu time spent up to now is       55.3 secs

     total energy              =   -2521.75901401 Ry
     Harris-Foulkes estimate   =   -2521.75905024 Ry
     estimated scf accuracy    <       0.00010460 Ry

     iteration # 12     ecut=    20.00 Ry     beta=0.70
     Davidson diagonalization with overlap
     ethr =  5.45E-08,  avg # of iterations =  2.0

     negative rho (up, down):  0.358E-03 0.000E+00

     total cpu time spent up to now is       59.3 secs

     total energy              =   -2521.75901541 Ry
     Harris-Foulkes estimate   =   -2521.75904888 Ry
     estimated scf accuracy    <       0.00014071 Ry

     iteration # 13     ecut=    20.00 Ry     beta=0.70
     Davidson diagonalization with overlap
     ethr =  5.45E-08,  avg # of iterations =  2.0

     negative rho (up, down):  0.362E-03 0.000E+00

     total cpu time spent up to now is       63.0 secs

     total energy              =   -2521.75902889 Ry
     Harris-Foulkes estimate   =   -2521.75904245 Ry
     estimated scf accuracy    <       0.00006770 Ry

     iteration # 14     ecut=    20.00 Ry     beta=0.70
     Davidson diagonalization with overlap
     ethr =  3.53E-08,  avg # of iterations =  1.0

     negative rho (up, down):  0.363E-03 0.000E+00

     total cpu time spent up to now is       66.4 secs

     total energy              =   -2521.75903191 Ry
     Harris-Foulkes estimate   =   -2521.75904141 Ry
     estimated scf accuracy    <       0.00004847 Ry

     iteration # 15     ecut=    20.00 Ry     beta=0.70
     Davidson diagonalization with overlap
     ethr =  2.52E-08,  avg # of iterations =  1.0

     negative rho (up, down):  0.364E-03 0.000E+00

     total cpu time spent up to now is       69.9 secs

     total energy              =   -2521.75903618 Ry
     Harris-Foulkes estimate   =   -2521.75903845 Ry
     estimated scf accuracy    <       0.00000984 Ry

     iteration # 16     ecut=    20.00 Ry     beta=0.70
     Davidson diagonalization with overlap
     ethr =  5.12E-09,  avg # of iterations =  1.0

     negative rho (up, down):  0.364E-03 0.000E+00

     total cpu time spent up to now is       73.2 secs

     total energy              =   -2521.75903696 Ry
     Harris-Foulkes estimate   =   -2521.75903787 Ry
     estimated scf accuracy    <       0.00000321 Ry

     iteration # 17     ecut=    20.00 Ry     beta=0.70
     Davidson diagonalization with overlap
     ethr =  1.67E-09,  avg # of iterations =  2.0

     negative rho (up, down):  0.364E-03 0.000E+00

     total cpu time spent up to now is       76.9 secs

     total energy              =   -2521.75903708 Ry
     Harris-Foulkes estimate   =   -2521.75903805 Ry
     estimated scf accuracy    <       0.00000536 Ry

     iteration # 18     ecut=    20.00 Ry     beta=0.70
     Davidson diagonalization with overlap
     ethr =  1.67E-09,  avg # of iterations =  1.0

     negative rho (up, down):  0.365E-03 0.000E+00

     total cpu time spent up to now is       80.3 secs

     total energy              =   -2521.75903755 Ry
     Harris-Foulkes estimate   =   -2521.75903770 Ry
     estimated scf accuracy    <       0.00000054 Ry

     iteration # 19     ecut=    20.00 Ry     beta=0.70
     Davidson diagonalization with overlap
     ethr =  2.81E-10,  avg # of iterations =  2.0

     negative rho (up, down):  0.365E-03 0.000E+00

     total cpu time spent up to now is       84.1 secs

     total energy              =   -2521.75903758 Ry
     Harris-Foulkes estimate   =   -2521.75903769 Ry
     estimated scf accuracy    <       0.00000051 Ry

     iteration # 20     ecut=    20.00 Ry     beta=0.70
     Davidson diagonalization with overlap
     ethr =  2.65E-10,  avg # of iterations =  1.0

     negative rho (up, down):  0.365E-03 0.000E+00

     total cpu time spent up to now is       87.5 secs

     total energy              =   -2521.75903762 Ry
     Harris-Foulkes estimate   =   -2521.75903768 Ry
     estimated scf accuracy    <       0.00000030 Ry

     iteration # 21     ecut=    20.00 Ry     beta=0.70
     Davidson diagonalization with overlap
     ethr =  1.56E-10,  avg # of iterations =  1.0

     negative rho (up, down):  0.365E-03 0.000E+00

     total cpu time spent up to now is       90.9 secs

     total energy              =   -2521.75903765 Ry
     Harris-Foulkes estimate   =   -2521.75903767 Ry
     estimated scf accuracy    <       0.00000006 Ry

     iteration # 22     ecut=    20.00 Ry     beta=0.70
     Davidson diagonalization with overlap
     ethr =  3.33E-11,  avg # of iterations =  2.0

     negative rho (up, down):  0.365E-03 0.000E+00

     total cpu time spent up to now is       94.5 secs

     total energy              =   -2521.75903765 Ry
     Harris-Foulkes estimate   =   -2521.75903766 Ry
     estimated scf accuracy    <       0.00000006 Ry

     iteration # 23     ecut=    20.00 Ry     beta=0.70
     Davidson diagonalization with overlap
     ethr =  3.26E-11,  avg # of iterations =  1.0

     negative rho (up, down):  0.365E-03 0.000E+00

     total cpu time spent up to now is       97.9 secs

     total energy              =   -2521.75903766 Ry
     Harris-Foulkes estimate   =   -2521.75903766 Ry
     estimated scf accuracy    <       0.00000003 Ry

     iteration # 24     ecut=    20.00 Ry     beta=0.70
     Davidson diagonalization with overlap
     ethr =  1.66E-11,  avg # of iterations =  2.0

     negative rho (up, down):  0.365E-03 0.000E+00

     total cpu time spent up to now is      101.6 secs

     total energy              =   -2521.75903766 Ry
     Harris-Foulkes estimate   =   -2521.75903766 Ry
     estimated scf accuracy    <       0.00000003 Ry

     iteration # 25     ecut=    20.00 Ry     beta=0.70
     Davidson diagonalization with overlap
     ethr =  1.49E-11,  avg # of iterations =  1.0

     negative rho (up, down):  0.365E-03 0.000E+00

     total cpu time spent up to now is      104.5 secs

     End of self-consistent calculation

          k = 0.0000 0.0000 0.0000 (  5414 PWs)   bands (ev):

       -3.5965     -2.4446     -2.3704     -2.2604     -2.2255     -2.1137     -1.6630     -1.2740
       -1.0475     -0.9924     -0.9319     -0.7200     -0.6770     -0.6166     -0.5073     -0.4819
       -0.2674     -0.2134     -0.1379      0.4487      0.6195      0.6635      0.7419      0.8240
        0.9166      1.0352      1.1670      1.8552      2.0219      2.0831      2.1499      2.3132
        2.3657      2.7078      2.9621      2.9891      3.0372      3.0994      3.1774      3.3104
        3.3799      3.4106      3.4221      3.4627      3.4668      3.5477      3.5863      3.6143
        3.6430      3.6675      3.7205      3.7853      3.8745      3.9047      3.9408      4.0661
        4.1325      4.3373      4.4065      4.4349      4.5698      4.6163      4.6540      4.7429
        4.8170      4.8495      4.9045      4.9580      4.9753      5.0252      5.1219      5.1487
        5.2313      5.2779      5.2920      5.3382      5.3529      5.4627      5.5130      5.6122
        5.7255      7.0537      7.1455      7.2072      7.2925      7.3865      7.4298      7.5032
        7.5641      7.6234      7.6530      7.7244      7.8112      8.0050      8.1055      8.1506
        8.2135      8.2858      8.3254      8.3581      8.4677      8.5727      8.6283      8.6616
        8.7316      8.7870      8.8070      8.8589      8.9020      8.9165      8.9569      9.0302
        9.0780      9.1817      9.1885      9.2362      9.2907      9.3462      9.3674      9.4207
        9.4442      9.5570      9.5985      9.6957      9.7727      9.8207      9.9013      9.9670
        9.9968     10.0363     10.0694     10.1314     10.1568     10.2166     10.2726     10.3097
       10.3794     10.3996     10.4195     10.5409     10.6513     10.6997     10.7352     10.8096
       10.8438     10.8626     11.0143     11.0914     11.1698     11.2274     11.3363     11.3570
       11.4045     11.4966     11.5543     11.6469     11.6642     11.6925     11.7119     11.7837
       11.7939     11.8682     11.8965     11.9244     11.9752     12.0275     12.1230     12.1617
       12.2799     12.3326     12.3622     12.6862     12.7342     12.8323     13.0341     13.1276
       13.1772     13.2473     13.3305     13.4119     13.5214     13.5477     13.6016     13.6821
       13.7993     13.8609     13.8712     13.9514     14.0100     14.0368     14.1023     14.1756
       14.1999     14.2477     14.3200     14.3766     14.4024     14.4759     14.5472     14.5553
       14.5967     14.6538     14.6848     14.7628     14.8125     14.8610     14.9539     14.9862
       15.0472     15.0911     15.1315     15.1590     15.1777     15.2383     15.2916     15.3436
       15.3613     15.4288     15.4438     15.4650

     occupation numbers 
        1.0000      1.0000      1.0000      1.0000      1.0000      1.0000      1.0000      1.0000
        1.0000      1.0000      1.0000      1.0000      1.0000      1.0000      1.0000      1.0000
        1.0000      1.0000      1.0000      1.0000      1.0000      1.0000      1.0000      1.0000
        1.0000      1.0000      1.0000      1.0000      1.0000      1.0000      1.0000      1.0000
        1.0000      1.0000      1.0000      1.0000      1.0000      0.9999      0.9999      0.9999
        0.9999      0.9999      0.9999      0.9999      0.9999      0.9999      0.9999      0.9998
        0.9998      0.9998      0.9998      0.9998      0.9997      0.9997      0.9997      0.9996
        0.9996      0.9994      0.9993      0.9992      0.9990      0.9989      0.9988      0.9986
        0.9983      0.9982      0.9980      0.9978      0.9977      0.9975      0.9969      0.9968
        0.9962      0.9958      0.9957      0.9953      0.9951      0.9940      0.9933      0.9919
        0.9898      0.8723      0.8504      0.8341      0.8091      0.7784      0.7630      0.7355
        0.7111      0.6862      0.6733      0.6411      0.6003      0.5048      0.4546      0.4324
        0.4018      0.3676      0.3494      0.3347      0.2877      0.2467      0.2266      0.2152
        0.1924      0.1758      0.1701      0.1559      0.1449      0.1414      0.1318      0.1159
        0.1065      0.0883      0.0872      0.0799      0.0723      0.0652      0.0626      0.0567
        0.0542      0.0437      0.0404      0.0335      0.0289      0.0263      0.0225      0.0197
        0.0186      0.0172      0.0161      0.0143      0.0136      0.0121      0.0108      0.0100
        0.0088      0.0084      0.0081      0.0064      0.0051      0.0046      0.0043      0.0037
        0.0035      0.0033      0.0025      0.0021      0.0018      0.0016      0.0013      0.0012
        0.0011      0.0009      0.0008      0.0007      0.0007      0.0006      0.0006      0.0005
        0.0005      0.0004      0.0004      0.0004      0.0004      0.0003      0.0003      0.0002
        0.0002      0.0002      0.0002      0.0001      0.0001      0.0001      0.0000      0.0000
        0.0000      0.0000      0.0000      0.0000      0.0000      0.0000      0.0000      0.0000
        0.0000      0.0000      0.0000      0.0000      0.0000      0.0000      0.0000      0.0000
        0.0000      0.0000      0.0000      0.0000      0.0000      0.0000      0.0000      0.0000
        0.0000      0.0000      0.0000      0.0000      0.0000      0.0000      0.0000      0.0000
        0.0000      0.0000      0.0000      0.0000      0.0000      0.0000      0.0000      0.0000
        0.0000      0.0000      0.0000      0.0000

     the Fermi energy is     8.0145 ev

!    total energy              =   -2521.75903765 Ry
     Harris-Foulkes estimate   =   -2521.75903766 Ry
     estimated scf accuracy    <          7.3E-09 Ry

     total all-electron energy =     -2521.759038 Ry

     The total energy is the sum of the following terms:

     one-electron contribution =     190.64277824 Ry
     hartree contribution      =       6.19933262 Ry
     xc contribution           =    -105.14808653 Ry
     ewald contribution        =    -334.97772817 Ry
     one-center paw contrib.   =   -2276.86892727 Ry
     smearing contrib. (-TS)   =      -1.60640654 Ry

     convergence has been achieved in  25 iterations

     Forces acting on atoms (Ry/au):


     negative rho (up, down):  0.365E-03 0.000E+00
     atom    1 type  1   force =     0.02940151   -0.01383227   -0.02182043
     atom    2 type  1   force =    -0.00779425    0.02491255   -0.00452209
     atom    3 type  1   force =    -0.01472091    0.05831216   -0.09153837
     atom    4 type  1   force =     0.04218859   -0.02936518    0.00794629
     atom    5 type  1   force =    -0.05685463   -0.00731986    0.05960918
     atom    6 type  1   force =    -0.04577722   -0.02908039    0.00002972
     atom    7 type  1   force =    -0.05838331   -0.01347284   -0.03334873
     atom    8 type  1   force =    -0.02019676   -0.01807345    0.00441656
     atom    9 type  1   force =    -0.06714964    0.02145623    0.00869757
     atom   10 type  1   force =    -0.02350687   -0.00785898   -0.07880669
     atom   11 type  1   force =     0.03490905   -0.02839162    0.01496199
     atom   12 type  1   force =     0.02801634   -0.04977950    0.05642579
     atom   13 type  1   force =     0.01305708   -0.11144855   -0.05124123
     atom   14 type  1   force =    -0.00371561    0.00889333   -0.01397363
     atom   15 type  1   force =     0.14700236    0.06412193    0.00532001
     atom   16 type  1   force =     0.00567720    0.00617047   -0.04628456
     atom   17 type  1   force =     0.00278825    0.03375524   -0.03881398
     atom   18 type  1   force =     0.08429268    0.01676932   -0.02419669
     atom   19 type  1   force =     0.06098491   -0.08312584   -0.02909914
     atom   20 type  1   force =    -0.03070711    0.01017702    0.08184536
     atom   21 type  1   force =     0.02146321    0.07931810    0.01017775
     atom   22 type  1   force =    -0.00359725   -0.06041094    0.07231333
     atom   23 type  1   force =     0.02938021    0.00936289   -0.00921061
     atom   24 type  1   force =     0.06847916    0.00369007   -0.08767516
     atom   25 type  1   force =     0.05161387    0.03148372    0.00761079
     atom   26 type  1   force =     0.07430804    0.10857908   -0.00573332
     atom   27 type  1   force =    -0.03724645    0.04078923    0.01686759
     atom   28 type  1   force =     0.01837758   -0.01202209   -0.01498661
     atom   29 type  1   force =    -0.08701283    0.01015994    0.03265531
     atom   30 type  1   force =    -0.02565420    0.02642726    0.07734230
     atom   31 type  1   force =    -0.05323224    0.02274353    0.00604894
     atom   32 type  1   force =     0.02178050    0.07893124   -0.01735685
     atom   33 type  1   force =     0.01515380    0.05083520    0.04267742
     atom   34 type  1   force =    -0.02849174    0.02310962    0.01526363
     atom   35 type  1   force =     0.00874706   -0.05443963    0.01130214
     atom   36 type  1   force =    -0.02074165   -0.02173763    0.02464342
     atom   37 type  1   force =     0.01201667   -0.04377787    0.06415552
     atom   38 type  1   force =    -0.01577911   -0.00023465   -0.01452312
     atom   39 type  1   force =    -0.04060764    0.03423397   -0.05503015
     atom   40 type  1   force =    -0.03077672    0.05568647    0.04049619
     atom   41 type  1   force =    -0.11191309   -0.05116915   -0.06669085
     atom   42 type  1   force =     0.00276131    0.00748125   -0.04262959
     atom   43 type  1   force =    -0.00330775    0.06537818    0.05520721
     atom   44 type  1   force =     0.00794199    0.01308365    0.00807556
     atom   45 type  1   force =    -0.04749016   -0.01488384    0.00725480
     atom   46 type  1   force =     0.03246640   -0.08682493   -0.03691511
     atom   47 type  1   force =    -0.00348695   -0.02081274   -0.01600584
     atom   48 type  1   force =    -0.00404624    0.08421629   -0.01554655
     atom   49 type  1   force =     0.03243479   -0.00478759    0.02592250
     atom   50 type  1   force =     0.01461703   -0.00144088    0.07848289
     atom   51 type  1   force =    -0.07587424    0.14956534    0.03019609
     atom   52 type  1   force =    -0.08913938   -0.07958156    0.01366876
     atom   53 type  1   force =     0.09833741   -0.00299407   -0.06054019
     atom   54 type  1   force =     0.04276609   -0.01798882    0.07851668
     atom   55 type  1   force =     0.05865910    0.03935778    0.00357659
     atom   56 type  1   force =    -0.02556703   -0.00284390    0.03925088
     atom   57 type  1   force =     0.00044690   -0.05256856    0.01510203
     atom   58 type  1   force =     0.02903423    0.00165431    0.02744772
     atom   59 type  1   force =     0.05147778   -0.03832387   -0.03245924
     atom   60 type  1   force =    -0.01423207   -0.08798364    0.00305555
     atom   61 type  1   force =    -0.02061258    0.00791632   -0.08697244
     atom   62 type  1   force =    -0.05356671   -0.05430120    0.03452512
     atom   63 type  1   force =    -0.00135600   -0.04214326   -0.02115738
     atom   64 type  1   force =    -0.01804277   -0.04555240   -0.06401062
     The non-local contrib.  to forces
     atom    1 type  1   force =     0.06862901   -0.03544128   -0.06538890
     atom    2 type  1   force =    -0.03777244    0.05511686   -0.00637827
     atom    3 type  1   force =    -0.04159644    0.07959571   -0.16798038
     atom    4 type  1   force =     0.10164988   -0.07016381    0.01335961
     atom    5 type  1   force =    -0.09476329   -0.03654711    0.11265806
     atom    6 type  1   force =    -0.07755372   -0.06573819    0.02551731
     atom    7 type  1   force =    -0.12159091   -0.04459943   -0.06114328
     atom    8 type  1   force =    -0.05982681   -0.05236387   -0.00898359
     atom    9 type  1   force =    -0.14796536    0.02986614    0.01665837
     atom   10 type  1   force =    -0.07545837   -0.00304440   -0.15578336
     atom   11 type  1   force =     0.07488098   -0.04580739    0.03874967
     atom   12 type  1   force =     0.05259697   -0.07889477    0.09406790
     atom   13 type  1   force =     0.02244466   -0.21187983   -0.11365348
     atom   14 type  1   force =    -0.02163681   -0.00953403   -0.02838941
     atom   15 type  1   force =     0.27590419    0.10166774    0.02761818
     atom   16 type  1   force =     0.01417986   -0.00298090   -0.06332105
     atom   17 type  1   force =     0.00040546    0.06755805   -0.09148179
     atom   18 type  1   force =     0.17425082    0.03553350   -0.03349267
     atom   19 type  1   force =     0.10372291   -0.13914085   -0.06222473
     atom   20 type  1   force =    -0.05677823    0.02349697    0.12977481
     atom   21 type  1   force =     0.02904217    0.15520167    0.01635727
     atom   22 type  1   force =     0.00493461   -0.09632648    0.12434428
     atom   23 type  1   force =     0.05645370    0.01165706   -0.01469379
     atom   24 type  1   force =     0.10970445   -0.00930235   -0.16007000
     atom   25 type  1   force =     0.10813181    0.05991260    0.01877433
     atom   26 type  1   force =     0.15669058    0.20017287   -0.00840113
     atom   27 type  1   force =    -0.08261351    0.07332922    0.04183264
     atom   28 type  1   force =     0.04266360   -0.01621972   -0.04631651
     atom   29 type  1   force =    -0.18803067    0.02349368    0.06323784
     atom   30 type  1   force =    -0.04274687    0.04628786    0.12723835
     atom   31 type  1   force =    -0.08347405    0.04916484    0.00503502
     atom   32 type  1   force =     0.04961128    0.12847491   -0.03092986
     atom   33 type  1   force =     0.02737797    0.09811897    0.06508338
     atom   34 type  1   force =    -0.05621258    0.05259473    0.03113933
     atom   35 type  1   force =     0.03407570   -0.08767237    0.03536217
     atom   36 type  1   force =    -0.04163054   -0.03306106    0.05330520
     atom   37 type  1   force =     0.05128606   -0.06303852    0.09382572
     atom   38 type  1   force =    -0.03120914   -0.00848403   -0.03167661
     atom   39 type  1   force =    -0.07976051    0.07644778   -0.09643777
     atom   40 type  1   force =    -0.01594147    0.11243177    0.06617436
     atom   41 type  1   force =    -0.20421843   -0.08730585   -0.11116937
     atom   42 type  1   force =     0.01212805    0.01686090   -0.09139496
     atom   43 type  1   force =    -0.01789485    0.09956763    0.10747883
     atom   44 type  1   force =     0.00968570    0.05382298    0.02654876
     atom   45 type  1   force =    -0.11259338   -0.01044816    0.00950140
     atom   46 type  1   force =     0.06018922   -0.13515026   -0.07840228
     atom   47 type  1   force =    -0.01627036   -0.07494080   -0.01399078
     atom   48 type  1   force =     0.00499332    0.16510233   -0.02831302
     atom   49 type  1   force =     0.06128780   -0.01776940    0.06119204
     atom   50 type  1   force =     0.03052529   -0.00387616    0.15652986
     atom   51 type  1   force =    -0.14813956    0.24053788    0.05348890
     atom   52 type  1   force =    -0.15141311   -0.15653900    0.04104096
     atom   53 type  1   force =     0.16886642   -0.00069543   -0.08671087
     atom   54 type  1   force =     0.07542435   -0.04291631    0.13410143
     atom   55 type  1   force =     0.14140061    0.07197605   -0.01187618
     atom   56 type  1   force =    -0.05209799   -0.02601598    0.05947641
     atom   57 type  1   force =     0.01664848   -0.07541039    0.02412497
     atom   58 type  1   force =     0.06440889    0.02535576    0.01508979
     atom   59 type  1   force =     0.08012137   -0.06273867   -0.05590730
     atom   60 type  1   force =    -0.01495410   -0.16487408    0.02491823
     atom   61 type  1   force =    -0.05051587    0.01905186   -0.16370997
     atom   62 type  1   force =    -0.11131319   -0.10258202    0.07289659
     atom   63 type  1   force =    -0.02337009   -0.08406025   -0.03705090
     atom   64 type  1   force =    -0.02921857   -0.05658826   -0.10347696
     The ionic contribution  to forces
     atom    1 type  1   force =     0.52892113   -0.06659505   -0.17725277
     atom    2 type  1   force =     0.13471563    0.53073933    0.15063229
     atom    3 type  1   force =    -0.24299591    0.29085480   -0.52237109
     atom    4 type  1   force =    -0.16668345   -0.38680302    0.27254922
     atom    5 type  1   force =    -0.38809067    0.09041166    0.39144130
     atom    6 type  1   force =    -0.47340804   -0.09465469   -0.16597417
     atom    7 type  1   force =    -0.09684411   -0.45282555   -0.14149366
     atom    8 type  1   force =    -0.26645455   -0.18629784    0.10670677
     atom    9 type  1   force =    -0.35750293    0.10432309    0.07002923
     atom   10 type  1   force =    -0.24719245   -0.32564435   -0.24315506
     atom   11 type  1   force =     0.39883155   -0.63970740   -0.19660323
     atom   12 type  1   force =     0.26436533   -0.34905023    0.14146273
     atom   13 type  1   force =     0.06427420   -0.61509911   -0.44816070
     atom   14 type  1   force =     0.18940811   -0.19696528   -0.34990918
     atom   15 type  1   force =     0.86752779    0.53345836    0.01222780
     atom   16 type  1   force =     0.31425798   -0.02106795    0.09956514
     atom   17 type  1   force =     0.15177441    0.53104782   -0.40835911
     atom   18 type  1   force =     0.35256581   -0.04468254   -0.24853124
     atom   19 type  1   force =     0.57862036   -0.57249125   -0.41774865
     atom   20 type  1   force =     0.08438493   -0.10941235    0.19571617
     atom   21 type  1   force =     0.23252451    0.47539015    0.06372842
     atom   22 type  1   force =    -0.18716084   -0.11242238    0.28332055
     atom   23 type  1   force =    -0.03052804   -0.01591230   -0.02464771
     atom   24 type  1   force =     0.15168748   -0.21683710   -0.68445388
     atom   25 type  1   force =     0.15981257    0.45700030    0.31061357
     atom   26 type  1   force =     0.49720927    0.63253614   -0.06524129
     atom   27 type  1   force =     0.01407109    0.01096611    0.08747167
     atom   28 type  1   force =     0.21077191   -0.19068317    0.47561228
     atom   29 type  1   force =    -0.34431289    0.37182132    0.39327405
     atom   30 type  1   force =    -0.11671424   -0.11526451    0.59779920
     atom   31 type  1   force =    -0.40753985    0.13064966    0.20177034
     atom   32 type  1   force =    -0.15046965    0.52372007   -0.19145836
     atom   33 type  1   force =    -0.16165463    0.41268590   -0.15272384
     atom   34 type  1   force =    -0.29153992    0.09084958    0.19948665
     atom   35 type  1   force =     0.01784083   -0.49019845   -0.51772844
     atom   36 type  1   force =    -0.24634274   -0.13326321    0.43436330
     atom   37 type  1   force =    -0.17905122   -0.45630218    0.32099977
     atom   38 type  1   force =    -0.16041791   -0.25163818    0.13760736
     atom   39 type  1   force =    -0.19346646    0.33536910   -0.40883495
     atom   40 type  1   force =    -0.21634100    0.65098107    0.30891955
     atom   41 type  1   force =    -0.44048015   -0.06539210   -0.33583047
     atom   42 type  1   force =    -0.13837549    0.11472780   -0.29762435
     atom   43 type  1   force =     0.04628886    0.49852087   -0.07702986
     atom   44 type  1   force =     0.27221091    0.30928730   -0.12132247
     atom   45 type  1   force =     0.03279410   -0.25128989    0.15004570
     atom   46 type  1   force =     0.15884343   -0.19664541   -0.28295810
     atom   47 type  1   force =     0.01862564   -0.15625496   -0.22332542
     atom   48 type  1   force =    -0.26003465    0.37845257   -0.21695028
     atom   49 type  1   force =     0.20350886    0.15230134    0.23201505
     atom   50 type  1   force =     0.08342918    0.08720672    0.65027596
     atom   51 type  1   force =    -0.27692417    0.72065349    0.43428622
     atom   52 type  1   force =    -0.09802052   -0.13428851    0.19352214
     atom   53 type  1   force =     0.40181599   -0.17330172   -0.22948424
     atom   54 type  1   force =     0.24440005    0.05131366    0.48653551
     atom   55 type  1   force =     0.37894637    0.48385702    0.14446977
     atom   56 type  1   force =    -0.46220116    0.19448535    0.24107421
     atom   57 type  1   force =    -0.15557397   -0.40274542   -0.16262379
     atom   58 type  1   force =     0.28759943   -0.10665856    0.12062719
     atom   59 type  1   force =     0.17915732   -0.21019791   -0.20540399
     atom   60 type  1   force =    -0.27765183   -0.08659675    0.09577801
     atom   61 type  1   force =    -0.19418878   -0.16307958   -0.30164969
     atom   62 type  1   force =    -0.36754539   -0.44099351    0.21334125
     atom   63 type  1   force =     0.07494999   -0.35138228   -0.07936576
     atom   64 type  1   force =    -0.00042739   -0.38096588   -0.31905262
     The local contribution  to forces
     atom    1 type  1   force =    -0.56764671    0.08805074    0.22048438
     atom    2 type  1   force =    -0.10486653   -0.56063439   -0.14871096
     atom    3 type  1   force =     0.26969691   -0.31172875    0.59806909
     atom    4 type  1   force =     0.10754327    0.42719372   -0.27793014
     atom    5 type  1   force =     0.42560906   -0.06120892   -0.44398783
     atom    6 type  1   force =     0.50469731    0.13092712    0.14054242
     atom    7 type  1   force =     0.15952200    0.48360849    0.16898607
     atom    8 type  1   force =     0.30582420    0.22041173   -0.09325547
     atom    9 type  1   force =     0.43767078   -0.11263985   -0.07784096
     atom   10 type  1   force =     0.29868294    0.32076562    0.31957554
     atom   11 type  1   force =    -0.43837653    0.65679199    0.17296430
     atom   12 type  1   force =    -0.28871914    0.37777435   -0.17872256
     atom   13 type  1   force =    -0.07352746    0.71467926    0.50994198
     atom   14 type  1   force =    -0.17152772    0.21539001    0.36412083
     atom   15 type  1   force =    -0.99518843   -0.57049808   -0.03443907
     atom   16 type  1   force =    -0.32260607    0.03031993   -0.08270073
     atom   17 type  1   force =    -0.14933390   -0.56445987    0.46051518
     atom   18 type  1   force =    -0.44174750    0.02596932    0.25769170
     atom   19 type  1   force =    -0.62078068    0.62797911    0.45045310
     atom   20 type  1   force =    -0.05854852    0.09610913   -0.24309038
     atom   21 type  1   force =    -0.23995590   -0.55048543   -0.06979355
     atom   22 type  1   force =     0.17861157    0.14785618   -0.33468347
     atom   23 type  1   force =     0.00370055    0.01359032    0.03009087
     atom   24 type  1   force =    -0.19240190    0.22962762    0.75608668
     atom   25 type  1   force =    -0.21600806   -0.48507020   -0.32157811
     atom   26 type  1   force =    -0.57881145   -0.72323248    0.06781942
     atom   27 type  1   force =     0.03089465   -0.04328626   -0.11223939
     atom   28 type  1   force =    -0.23485444    0.19482205   -0.44424945
     atom   29 type  1   force =     0.44456192   -0.38492371   -0.42347847
     atom   30 type  1   force =     0.13374164    0.09557183   -0.64711450
     atom   31 type  1   force =     0.43734431   -0.15684309   -0.20069676
     atom   32 type  1   force =     0.12280374   -0.57269722    0.20474482
     atom   33 type  1   force =     0.14948341   -0.45942084    0.13043280
     atom   34 type  1   force =     0.31899271   -0.12007797   -0.21511567
     atom   35 type  1   force =    -0.04301313    0.52296194    0.49361313
     atom   36 type  1   force =     0.26699649    0.14439636   -0.46263057
     atom   37 type  1   force =     0.13997967    0.47519698   -0.35022996
     atom   38 type  1   force =     0.17572493    0.25967307   -0.12058862
     atom   39 type  1   force =     0.23227225   -0.37722247    0.44968944
     atom   40 type  1   force =     0.20134097   -0.70710212   -0.33431115
     atom   41 type  1   force =     0.53183227    0.10116340    0.37988533
     atom   42 type  1   force =     0.12902819   -0.12402692    0.34589836
     atom   43 type  1   force =    -0.03178155   -0.53227041    0.02504872
     atom   44 type  1   force =    -0.27384506   -0.34970907    0.10295602
     atom   45 type  1   force =     0.03187086    0.24678828   -0.15223709
     atom   46 type  1   force =    -0.18628084    0.24439832    0.32401884
     atom   47 type  1   force =    -0.00596703    0.21002215    0.22116069
     atom   48 type  1   force =     0.25091003   -0.45846800    0.22965107
     atom   49 type  1   force =    -0.23206773   -0.13928425   -0.26703957
     atom   50 type  1   force =    -0.09922505   -0.08467281   -0.72757113
     atom   51 type  1   force =     0.34851181   -0.81070605   -0.45724338
     atom   52 type  1   force =     0.15976644    0.21063175   -0.22062654
     atom   53 type  1   force =    -0.47161678    0.17085717    0.25529755
     atom   54 type  1   force =    -0.27677233   -0.02648070   -0.54157753
     atom   55 type  1   force =    -0.46094391   -0.51602924   -0.12906554
     atom   56 type  1   force =     0.48832532   -0.17146257   -0.26096209
     atom   57 type  1   force =     0.13934858    0.42519104    0.15367980
     atom   58 type  1   force =    -0.32268859    0.08309799   -0.10820991
     atom   59 type  1   force =    -0.20737756    0.23423730    0.22859888
     atom   60 type  1   force =     0.27826978    0.16285309   -0.11750946
     atom   61 type  1   force =     0.22385594    0.15206268    0.37769193
     atom   62 type  1   force =     0.42482735    0.48881939   -0.25134000
     atom   63 type  1   force =    -0.05292454    0.39276631    0.09504458
     atom   64 type  1   force =     0.01139834    0.39172630    0.35819594
     The core correction contribution to forces
     atom    1 type  1   force =    -0.00050296    0.00015377    0.00034224
     atom    2 type  1   force =     0.00012423   -0.00032643   -0.00006072
     atom    3 type  1   force =     0.00018270   -0.00040131    0.00074706
     atom    4 type  1   force =    -0.00031484    0.00041395   -0.00003304
     atom    5 type  1   force =     0.00040278    0.00003746   -0.00050522
     atom    6 type  1   force =     0.00047894    0.00036894   -0.00006340
     atom    7 type  1   force =     0.00051713    0.00035309    0.00030037
     atom    8 type  1   force =     0.00027033    0.00019223   -0.00005584
     atom    9 type  1   force =     0.00066309   -0.00010416   -0.00014359
     atom   10 type  1   force =     0.00046277    0.00007263    0.00056398
     atom   11 type  1   force =    -0.00043789    0.00033791   -0.00015078
     atom   12 type  1   force =    -0.00021736    0.00038920   -0.00038405
     atom   13 type  1   force =    -0.00013236    0.00086881    0.00063320
     atom   14 type  1   force =     0.00003515    0.00002077    0.00020310
     atom   15 type  1   force =    -0.00125582   -0.00051022   -0.00009536
     atom   16 type  1   force =    -0.00016459   -0.00008356    0.00016933
     atom   17 type  1   force =    -0.00004169   -0.00040705    0.00050523
     atom   18 type  1   force =    -0.00078929   -0.00005308    0.00013188
     atom   19 type  1   force =    -0.00059410    0.00054294    0.00042355
     atom   20 type  1   force =     0.00022035   -0.00002199   -0.00054826
     atom   21 type  1   force =    -0.00016068   -0.00078195   -0.00011640
     atom   22 type  1   force =     0.00002638    0.00047348   -0.00067302
     atom   23 type  1   force =    -0.00024043    0.00002741    0.00004487
     atom   24 type  1   force =    -0.00049725    0.00020791    0.00076237
     atom   25 type  1   force =    -0.00032627   -0.00036582   -0.00019276
     atom   26 type  1   force =    -0.00076669   -0.00091399    0.00008365
     atom   27 type  1   force =     0.00039423   -0.00022638   -0.00019309
     atom   28 type  1   force =    -0.00020982    0.00007129   -0.00003107
     atom   29 type  1   force =     0.00078365   -0.00024211   -0.00037118
     atom   30 type  1   force =     0.00007922   -0.00015455   -0.00058335
     atom   31 type  1   force =     0.00043398   -0.00022403   -0.00006828
     atom   32 type  1   force =    -0.00015553   -0.00057405    0.00028025
     atom   33 type  1   force =    -0.00004837   -0.00055943   -0.00012028
     atom   34 type  1   force =     0.00027246   -0.00024340   -0.00024187
     atom   35 type  1   force =    -0.00015101    0.00048332    0.00005935
     atom   36 type  1   force =     0.00023835    0.00017652   -0.00038633
     atom   37 type  1   force =    -0.00018695    0.00037411   -0.00044832
     atom   38 type  1   force =     0.00013952    0.00020749    0.00014139
     atom   39 type  1   force =     0.00034898   -0.00037435    0.00056027
     atom   40 type  1   force =     0.00015293   -0.00064164   -0.00027899
     atom   41 type  1   force =     0.00093998    0.00035168    0.00042254
     atom   42 type  1   force =    -0.00000377   -0.00007173    0.00049634
     atom   43 type  1   force =     0.00007847   -0.00044008   -0.00029075
     atom   44 type  1   force =    -0.00011886   -0.00033499   -0.00011488
     atom   45 type  1   force =     0.00042429    0.00007186   -0.00005110
     atom   46 type  1   force =    -0.00029077    0.00056207    0.00043113
     atom   47 type  1   force =     0.00011223    0.00036915    0.00015244
     atom   48 type  1   force =     0.00009713   -0.00085806    0.00006779
     atom   49 type  1   force =    -0.00028680   -0.00003207   -0.00024357
     atom   50 type  1   force =    -0.00012401   -0.00008510   -0.00074765
     atom   51 type  1   force =     0.00066344   -0.00092821   -0.00032859
     atom   52 type  1   force =     0.00053769    0.00061352   -0.00027723
     atom   53 type  1   force =    -0.00074273    0.00013071    0.00036489
     atom   54 type  1   force =    -0.00029686    0.00010904   -0.00053990
     atom   55 type  1   force =    -0.00073713   -0.00046433    0.00005801
     atom   56 type  1   force =     0.00039648    0.00013198   -0.00034488
     atom   57 type  1   force =     0.00001564    0.00039804   -0.00008357
     atom   58 type  1   force =    -0.00029790   -0.00012206   -0.00006267
     atom   59 type  1   force =    -0.00040836    0.00036590    0.00025883
     atom   60 type  1   force =     0.00011674    0.00061870   -0.00014125
     atom   61 type  1   force =     0.00024337   -0.00010319    0.00069265
     atom   62 type  1   force =     0.00048235    0.00046795   -0.00036713
     atom   63 type  1   force =     0.00000227    0.00053915    0.00020779
     atom   64 type  1   force =     0.00019404    0.00029410    0.00032152
     The Hubbard contrib.    to forces
     atom    1 type  1   force =     0.00000000    0.00000000    0.00000000
     atom    2 type  1   force =     0.00000000    0.00000000    0.00000000
     atom    3 type  1   force =     0.00000000    0.00000000    0.00000000
     atom    4 type  1   force =     0.00000000    0.00000000    0.00000000
     atom    5 type  1   force =     0.00000000    0.00000000    0.00000000
     atom    6 type  1   force =     0.00000000    0.00000000    0.00000000
     atom    7 type  1   force =     0.00000000    0.00000000    0.00000000
     atom    8 type  1   force =     0.00000000    0.00000000    0.00000000
     atom    9 type  1   force =     0.00000000    0.00000000    0.00000000
     atom   10 type  1   force =     0.00000000    0.00000000    0.00000000
     atom   11 type  1   force =     0.00000000    0.00000000    0.00000000
     atom   12 type  1   force =     0.00000000    0.00000000    0.00000000
     atom   13 type  1   force =     0.00000000    0.00000000    0.00000000
     atom   14 type  1   force =     0.00000000    0.00000000    0.00000000
     atom   15 type  1   force =     0.00000000    0.00000000    0.00000000
     atom   16 type  1   force =     0.00000000    0.00000000    0.00000000
     atom   17 type  1   force =     0.00000000    0.00000000    0.00000000
     atom   18 type  1   force =     0.00000000    0.00000000    0.00000000
     atom   19 type  1   force =     0.00000000    0.00000000    0.00000000
     atom   20 type  1   force =     0.00000000    0.00000000    0.00000000
     atom   21 type  1   force =     0.00000000    0.00000000    0.00000000
     atom   22 type  1   force =     0.00000000    0.00000000    0.00000000
     atom   23 type  1   force =     0.00000000    0.00000000    0.00000000
     atom   24 type  1   force =     0.00000000    0.00000000    0.00000000
     atom   25 type  1   force =     0.00000000    0.00000000    0.00000000
     atom   26 type  1   force =     0.00000000    0.00000000    0.00000000
     atom   27 type  1   force =     0.00000000    0.00000000    0.00000000
     atom   28 type  1   force =     0.00000000    0.00000000    0.00000000
     atom   29 type  1   force =     0.00000000    0.00000000    0.00000000
     atom   30 type  1   force =     0.00000000    0.00000000    0.00000000
     atom   31 type  1   force =     0.00000000    0.00000000    0.00000000
     atom   32 type  1   force =     0.00000000    0.00000000    0.00000000
     atom   33 type  1   force =     0.00000000    0.00000000    0.00000000
     atom   34 type  1   force =     0.00000000    0.00000000    0.00000000
     atom   35 type  1   force =     0.00000000    0.00000000    0.00000000
     atom   36 type  1   force =     0.00000000    0.00000000    0.00000000
     atom   37 type  1   force =     0.00000000    0.00000000    0.00000000
     atom   38 type  1   force =     0.00000000    0.00000000    0.00000000
     atom   39 type  1   force =     0.00000000    0.00000000    0.00000000
     atom   40 type  1   force =     0.00000000    0.00000000    0.00000000
     atom   41 type  1   force =     0.00000000    0.00000000    0.00000000
     atom   42 type  1   force =     0.00000000    0.00000000    0.00000000
     atom   43 type  1   force =     0.00000000    0.00000000    0.00000000
     atom   44 type  1   force =     0.00000000    0.00000000    0.00000000
     atom   45 type  1   force =     0.00000000    0.00000000    0.00000000
     atom   46 type  1   force =     0.00000000    0.00000000    0.00000000
     atom   47 type  1   force =     0.00000000    0.00000000    0.00000000
     atom   48 type  1   force =     0.00000000    0.00000000    0.00000000
     atom   49 type  1   force =     0.00000000    0.00000000    0.00000000
     atom   50 type  1   force =     0.00000000    0.00000000    0.00000000
     atom   51 type  1   force =     0.00000000    0.00000000    0.00000000
     atom   52 type  1   force =     0.00000000    0.00000000    0.00000000
     atom   53 type  1   force =     0.00000000    0.00000000    0.00000000
     atom   54 type  1   force =     0.00000000    0.00000000    0.00000000
     atom   55 type  1   force =     0.00000000    0.00000000    0.00000000
     atom   56 type  1   force =     0.00000000    0.00000000    0.00000000
     atom   57 type  1   force =     0.00000000    0.00000000    0.00000000
     atom   58 type  1   force =     0.00000000    0.00000000    0.00000000
     atom   59 type  1   force =     0.00000000    0.00000000    0.00000000
     atom   60 type  1   force =     0.00000000    0.00000000    0.00000000
     atom   61 type  1   force =     0.00000000    0.00000000    0.00000000
     atom   62 type  1   force =     0.00000000    0.00000000    0.00000000
     atom   63 type  1   force =     0.00000000    0.00000000    0.00000000
     atom   64 type  1   force =     0.00000000    0.00000000    0.00000000
     The SCF correction term to forces
     atom    1 type  1   force =     0.00000115    0.00000015   -0.00000501
     atom    2 type  1   force =     0.00000497    0.00001778   -0.00000406
     atom    3 type  1   force =    -0.00000806   -0.00000769   -0.00000269
     atom    4 type  1   force =    -0.00000616   -0.00000542    0.00000101
     atom    5 type  1   force =    -0.00001240   -0.00001236    0.00000323
     atom    6 type  1   force =     0.00000840    0.00001703    0.00000793
     atom    7 type  1   force =     0.00001270   -0.00000884    0.00000213
     atom    8 type  1   force =    -0.00000981   -0.00001510    0.00000505
     atom    9 type  1   force =    -0.00001511    0.00001161   -0.00000512
     atom   10 type  1   force =    -0.00000166   -0.00000789   -0.00000743
     atom   11 type  1   force =     0.00001104   -0.00000614    0.00000240
     atom   12 type  1   force =    -0.00000934    0.00000254    0.00000213
     atom   13 type  1   force =    -0.00000185   -0.00001709   -0.00000186
     atom   14 type  1   force =     0.00000576   -0.00001754    0.00000139
     atom   15 type  1   force =     0.00001473    0.00000473    0.00000882
     atom   16 type  1   force =     0.00001013   -0.00001644    0.00000312
     atom   17 type  1   force =    -0.00001592    0.00001689    0.00000688
     atom   18 type  1   force =     0.00001295    0.00000271    0.00000400
     atom   19 type  1   force =     0.00001653   -0.00001519   -0.00000204
     atom   20 type  1   force =     0.00001447    0.00000586   -0.00000663
     atom   21 type  1   force =     0.00001321   -0.00000575    0.00000237
     atom   22 type  1   force =    -0.00000887    0.00000886    0.00000536
     atom   23 type  1   force =    -0.00000547    0.00000101   -0.00000450
     atom   24 type  1   force =    -0.00001352   -0.00000542    0.00000003
     atom   25 type  1   force =     0.00000393    0.00000743   -0.00000588
     atom   26 type  1   force =    -0.00001356    0.00001713    0.00000640
     atom   27 type  1   force =     0.00000719    0.00000715   -0.00000387
     atom   28 type  1   force =     0.00000644   -0.00001194   -0.00000149
     atom   29 type  1   force =    -0.00001473    0.00001137   -0.00000657
     atom   30 type  1   force =    -0.00001386   -0.00001278    0.00000296
     atom   31 type  1   force =     0.00000348   -0.00000326    0.00000899
     atom   32 type  1   force =    -0.00000924    0.00000814    0.00000667
     atom   33 type  1   force =    -0.00000447    0.00001120    0.00000572
     atom   34 type  1   force =    -0.00000430   -0.00001271   -0.00000445
     atom   35 type  1   force =    -0.00000523   -0.00001347   -0.00000371
     atom   36 type  1   force =    -0.00000309    0.00001437   -0.00000782
     atom   37 type  1   force =    -0.00001077   -0.00000766    0.00000867
     atom   38 type  1   force =    -0.00001641    0.00000760   -0.00000627
     atom   39 type  1   force =    -0.00000180    0.00001450   -0.00000678
     atom   40 type  1   force =     0.00001196    0.00001800   -0.00000721
     atom   41 type  1   force =     0.00001335    0.00001432    0.00000149
     atom   42 type  1   force =    -0.00001556   -0.00000820   -0.00000462
     atom   43 type  1   force =     0.00000144    0.00000078    0.00000063
     atom   44 type  1   force =     0.00000941    0.00001803    0.00000848
     atom   45 type  1   force =     0.00001408   -0.00000533   -0.00000374
     atom   46 type  1   force =     0.00000547    0.00001096   -0.00000435
     atom   47 type  1   force =     0.00001268   -0.00000769   -0.00000239
     atom   48 type  1   force =    -0.00001196   -0.00001195   -0.00000175
     atom   49 type  1   force =    -0.00000723   -0.00000262   -0.00000109
     atom   50 type  1   force =     0.00001173   -0.00001293   -0.00000378
     atom   51 type  1   force =     0.00001434    0.00000882   -0.00000670
     atom   52 type  1   force =    -0.00000978    0.00000128    0.00000979
     atom   53 type  1   force =     0.00001462    0.00001580   -0.00000715
     atom   54 type  1   force =     0.00001100   -0.00001391   -0.00000246
     atom   55 type  1   force =    -0.00000673    0.00001887   -0.00000911
     atom   56 type  1   force =     0.00001043    0.00001792    0.00000759
     atom   57 type  1   force =     0.00000829   -0.00000123    0.00000498
     atom   58 type  1   force =     0.00001250   -0.00001821    0.00000369
     atom   59 type  1   force =    -0.00001488    0.00001011   -0.00000529
     atom   60 type  1   force =    -0.00001255    0.00001599    0.00001039
     atom   61 type  1   force =    -0.00000713   -0.00001485    0.00000300
     atom   62 type  1   force =    -0.00001772   -0.00001241   -0.00000521
     atom   63 type  1   force =    -0.00001353   -0.00000559    0.00000727
     atom   64 type  1   force =     0.00001092   -0.00001806    0.00000185

     Total force =     0.638356     Total SCF correction =     0.000135


     entering subroutine stress ...


     negative rho (up, down):  0.365E-03 0.000E+00
          total   stress  (Ry/bohr**3)                   (kbar)     P=        132.84
   0.00086160   0.00008679   0.00004793        126.75     12.77      7.05
   0.00008679   0.00096672  -0.00014515         12.77    142.21    -21.35
   0.00004793  -0.00014515   0.00088086          7.05    -21.35    129.58

     kinetic stress (kbar)   1563.80      1.23     -0.98
                                1.23   1557.89     -4.99
                               -0.98     -4.99   1557.62

     local   stress (kbar)   -214.96    -28.39    -56.98
                              -28.39   -257.75     56.39
                              -56.98     56.39   -256.97

     nonloc. stress (kbar)   1712.85     13.37      9.24
                               13.37   1734.56    -16.40
                                9.24    -16.40   1722.27

     hartree stress (kbar)     45.91      1.07      9.43
                                1.07     34.74    -11.45
                                9.43    -11.45     46.61

     exc-cor stress (kbar)   -626.37     -0.08     -0.02
                               -0.08   -626.44      0.11
                               -0.02      0.11   -626.36

     corecor stress (kbar)    -30.99     -0.07     -0.06
                               -0.07    -31.13      0.07
                               -0.06      0.07    -31.06

     ewald   stress (kbar)  -2323.49     25.63     46.42
                               25.63  -2269.66    -45.08
                               46.42    -45.08  -2282.52

     hubbard stress (kbar)      0.00      0.00      0.00
                                0.00      0.00      0.00
                                0.00      0.00      0.00

     london  stress (kbar)      0.00      0.00      0.00
                                0.00      0.00      0.00
                                0.00      0.00      0.00

     dft-nl  stress (kbar)      0.00      0.00      0.00
                                0.00      0.00      0.00
                                0.00      0.00      0.00



     Molecular Dynamics Calculation

     Starting temperature  =              5802.25 K

     temperature is controlled by Andersen thermostat
     Collision frequency = 0.0333/timestep
     mass Al               =    26.98
     Time step             =    41.32 a.u.,  1.9992 femto-seconds

     Entering Dynamics:    iteration =     1
                           time      =   0.0020 pico-seconds


     Andersen thermostat:    4 collisions

ATOMIC_POSITIONS (crystal)
Al       0.691876236  -0.340492940   0.539070970
Al      -0.258458666  -0.585427302   0.662401399
Al       0.280924793   0.759483245   1.707154665
Al       0.251489398  -0.919567121   1.229653845
Al       1.326165583   0.769934783  -0.813105169
Al       0.089472388   0.392439896   0.053060136
Al      -0.226743373   0.758216712   0.043784700
Al       0.270337705  -0.174772065   0.941956098
Al      -0.564798219   0.287906797  -1.420240946
Al       1.213423864   1.105630103  -0.504701706
Al      -1.233642253   0.772211551  -0.245823767
Al       0.560637502   0.654135558   0.814709747
Al      -0.331132291   0.955886066  -0.508987445
Al       0.047536062   0.934830243  -0.225813108
Al      -0.194648776   1.222726882   0.014178335
Al      -1.001141073   0.892791421   1.033015172
Al       0.496728361   0.387503484  -0.114701559
Al      -0.014960475  -0.368164732   1.051873001
Al      -0.085797009   1.005380787   0.492301470
Al       0.896049177  -0.768980241   0.479994008
Al      -0.046828354   0.156149770   0.749148457
Al      -0.717821648  -0.432211295   1.824951537
Al       0.639825279   0.178323261   0.536070595
Al       0.459139223   0.135409911   0.817420063
Al      -0.851985142   0.566643808   0.297894282
Al       0.552336107   1.381112897   0.138533497
Al       0.765112864   0.217388870   0.264802735
Al      -0.258486395   0.998553411   0.193082606
Al       1.434004048   0.498669015  -0.670845926
Al       0.502700379  -0.060908337   0.172876695
Al       1.094197641   1.124955837   0.985164407
Al       0.289300632   0.533444960   1.100048350
Al       0.242655279   0.269717590  -0.170955104
Al       0.230654662  -1.176444436   0.427243825
Al       0.255798235  -0.953094636   0.717422335
Al       1.245309017   0.329097363   0.311189136
Al       1.327990491   0.063016488   0.983630714
Al      -0.512760959   0.216586812   0.300469561
Al       0.235731096  -0.481852840   0.571872922
Al      -0.026244355   0.452838686   0.556831228
Al       0.843690101   0.488018541  -0.832040796
Al      -0.546975220   0.747966701   0.466240818
Al       0.695386607   0.205921773  -0.224297116
Al       0.760712101   1.470011301   0.906847495
Al       1.014729846   0.091374974   0.237350225
Al       0.124711876   1.305626469   0.625335365
Al      -0.001490980  -0.237726486   0.550720156
Al       0.521349534   0.852127822   0.694887482
Al       0.606086202   0.635826342   0.250045903
Al       0.805402073   0.776646398  -0.714923995
Al      -0.071083641  -0.440990989   1.363755964
Al       0.589633769  -0.829317321   1.023080686
Al       0.972405716   0.342711726  -0.699246680
Al       0.050384823  -0.175726953   0.238947555
Al       1.625549335   0.399161198   0.420782995
Al       1.028731667   0.454072436   0.801508183
Al       1.028479368   0.703502450  -0.194142338
Al       0.781733882   0.984702554   0.932155017
Al       0.456022174   0.550982405   1.628839910
Al       0.338381744   0.302779676   1.059089693
Al       1.563473240   0.897646681  -0.042952883
Al       0.453026314   1.022753447  -0.574856142
Al       0.501326917   0.688184965   0.044306920
Al       0.784385524   1.004673622   0.701933824


     kinetic energy (Ekin) =     3.55661921 Ry
     temperature           =        5942.27608215 K 
     Ekin + Etot (const)   =       -2518.20241844 Ry
     Ions kinetic stress =      48.67 (kbar)
                                57.94     -6.09      9.52
                                -6.09     45.00      3.82
                                 9.52      3.82     43.06



     Linear momentum :   -0.0000000000    0.0000000000   -0.0000000000

     Writing output data file Aluminium.save
     NEW-OLD atomic charge density approx. for the potential

     negative rho (up, down):  0.328E-03 0.000E+00

     total cpu time spent up to now is      108.4 secs

     per-process dynamical memory:    24.5 Mb

     Self-consistent Calculation

     iteration #  1     ecut=    20.00 Ry     beta=0.70
     Davidson diagonalization with overlap
     ethr =  1.00E-06,  avg # of iterations = 17.0

     negative rho (up, down):  0.334E-03 0.000E+00

     total cpu time spent up to now is      120.3 secs

     total energy              =   -2521.68369271 Ry
     Harris-Foulkes estimate   =   -2521.69542321 Ry
     estimated scf accuracy    <       0.03184193 Ry

     iteration #  2     ecut=    20.00 Ry     beta=0.70
     Davidson diagonalization with overlap
     ethr =  1.66E-05,  avg # of iterations =  4.0

     negative rho (up, down):  0.336E-03 0.000E+00

     total cpu time spent up to now is      126.3 secs

     total energy              =   -2521.65063977 Ry
     Harris-Foulkes estimate   =   -2521.73728865 Ry
     estimated scf accuracy    <       0.35219257 Ry

     iteration #  3     ecut=    20.00 Ry     beta=0.70
     Davidson diagonalization with overlap
     ethr =  1.66E-05,  avg # of iterations =  4.0

     negative rho (up, down):  0.339E-03 0.000E+00

     total cpu time spent up to now is      131.7 secs

     total energy              =   -2521.68688737 Ry
     Harris-Foulkes estimate   =   -2521.71160843 Ry
     estimated scf accuracy    <       0.12878160 Ry

     iteration #  4     ecut=    20.00 Ry     beta=0.70
     Davidson diagonalization with overlap
     ethr =  1.66E-05,  avg # of iterations =  3.0

     negative rho (up, down):  0.342E-03 0.000E+00

     total cpu time spent up to now is      135.9 secs

     total energy              =   -2521.69829676 Ry
     Harris-Foulkes estimate   =   -2521.70162461 Ry
     estimated scf accuracy    <       0.01159142 Ry

     iteration #  5     ecut=    20.00 Ry     beta=0.70
     Davidson diagonalization with overlap
     ethr =  6.04E-06,  avg # of iterations =  2.0

     negative rho (up, down):  0.345E-03 0.000E+00

     total cpu time spent up to now is      139.3 secs

     total energy              =   -2521.69970092 Ry
     Harris-Foulkes estimate   =   -2521.70034478 Ry
     estimated scf accuracy    <       0.00187107 Ry

     iteration #  6     ecut=    20.00 Ry     beta=0.70
     Davidson diagonalization with overlap
     ethr =  9.75E-07,  avg # of iterations =  2.0

     negative rho (up, down):  0.348E-03 0.000E+00

     total cpu time spent up to now is      142.9 secs

     total energy              =   -2521.69971264 Ry
     Harris-Foulkes estimate   =   -2521.70047546 Ry
     estimated scf accuracy    <       0.00401348 Ry

     iteration #  7     ecut=    20.00 Ry     beta=0.70
     Davidson diagonalization with overlap
     ethr =  9.75E-07,  avg # of iterations =  2.0

     negative rho (up, down):  0.350E-03 0.000E+00

     total cpu time spent up to now is      146.4 secs

     total energy              =   -2521.70008038 Ry
     Harris-Foulkes estimate   =   -2521.70020412 Ry
     estimated scf accuracy    <       0.00050512 Ry

     iteration #  8     ecut=    20.00 Ry     beta=0.70
     Davidson diagonalization with overlap
     ethr =  2.63E-07,  avg # of iterations =  1.0

     negative rho (up, down):  0.351E-03 0.000E+00

     total cpu time spent up to now is      149.7 secs

     total energy              =   -2521.70013249 Ry
     Harris-Foulkes estimate   =   -2521.70015468 Ry
     estimated scf accuracy    <       0.00006450 Ry

     iteration #  9     ecut=    20.00 Ry     beta=0.70
     Davidson diagonalization with overlap
     ethr =  3.36E-08,  avg # of iterations =  2.0

     negative rho (up, down):  0.351E-03 0.000E+00

     total cpu time spent up to now is      153.6 secs

     total energy              =   -2521.70013662 Ry
     Harris-Foulkes estimate   =   -2521.70015834 Ry
     estimated scf accuracy    <       0.00011821 Ry

     iteration # 10     ecut=    20.00 Ry     beta=0.70
     Davidson diagonalization with overlap
     ethr =  3.36E-08,  avg # of iterations =  1.0

     negative rho (up, down):  0.351E-03 0.000E+00

     total cpu time spent up to now is      157.0 secs

     total energy              =   -2521.70014605 Ry
     Harris-Foulkes estimate   =   -2521.70015056 Ry
     estimated scf accuracy    <       0.00001714 Ry

     iteration # 11     ecut=    20.00 Ry     beta=0.70
     Davidson diagonalization with overlap
     ethr =  8.93E-09,  avg # of iterations =  2.0

     negative rho (up, down):  0.351E-03 0.000E+00

     total cpu time spent up to now is      160.6 secs

     total energy              =   -2521.70014823 Ry
     Harris-Foulkes estimate   =   -2521.70014894 Ry
     estimated scf accuracy    <       0.00000216 Ry

     iteration # 12     ecut=    20.00 Ry     beta=0.70
     Davidson diagonalization with overlap
     ethr =  1.12E-09,  avg # of iterations =  2.0

     negative rho (up, down):  0.351E-03 0.000E+00

     total cpu time spent up to now is      164.5 secs

     total energy              =   -2521.70014815 Ry
     Harris-Foulkes estimate   =   -2521.70014921 Ry
     estimated scf accuracy    <       0.00000591 Ry

     iteration # 13     ecut=    20.00 Ry     beta=0.70
     Davidson diagonalization with overlap
     ethr =  1.12E-09,  avg # of iterations =  2.0

     negative rho (up, down):  0.351E-03 0.000E+00

     total cpu time spent up to now is      168.1 secs

     total energy              =   -2521.70014856 Ry
     Harris-Foulkes estimate   =   -2521.70014881 Ry
     estimated scf accuracy    <       0.00000101 Ry

     iteration # 14     ecut=    20.00 Ry     beta=0.70
     Davidson diagonalization with overlap
     ethr =  5.25E-10,  avg # of iterations =  2.0

     negative rho (up, down):  0.351E-03 0.000E+00

     total cpu time spent up to now is      171.8 secs

     total energy              =   -2521.70014865 Ry
     Harris-Foulkes estimate   =   -2521.70014880 Ry
     estimated scf accuracy    <       0.00000089 Ry

     iteration # 15     ecut=    20.00 Ry     beta=0.70
     Davidson diagonalization with overlap
     ethr =  4.62E-10,  avg # of iterations =  1.0

     negative rho (up, down):  0.351E-03 0.000E+00

     total cpu time spent up to now is      175.2 secs

     total energy              =   -2521.70014872 Ry
     Harris-Foulkes estimate   =   -2521.70014875 Ry
     estimated scf accuracy    <       0.00000012 Ry

     iteration # 16     ecut=    20.00 Ry     beta=0.70
     Davidson diagonalization with overlap
     ethr =  6.03E-11,  avg # of iterations =  2.0

     negative rho (up, down):  0.351E-03 0.000E+00

     total cpu time spent up to now is      178.9 secs

     total energy              =   -2521.70014873 Ry
     Harris-Foulkes estimate   =   -2521.70014874 Ry
     estimated scf accuracy    <       0.00000007 Ry

     iteration # 17     ecut=    20.00 Ry     beta=0.70
     Davidson diagonalization with overlap
     ethr =  3.57E-11,  avg # of iterations =  1.0

     negative rho (up, down):  0.351E-03 0.000E+00

     total cpu time spent up to now is      182.3 secs

     total energy              =   -2521.70014874 Ry
[...]
     atom   63 type  1   force =     0.43679976   -0.30674041    0.09155907
     atom   64 type  1   force =    -0.03556070   -0.42292349    0.07879271
     The core correction contribution to forces
     atom    1 type  1   force =     0.00144731   -0.00037720   -0.00064620
     atom    2 type  1   force =     0.00058300   -0.00046677   -0.00076586
     atom    3 type  1   force =     0.00135044   -0.00035065   -0.00051188
     atom    4 type  1   force =     0.00008054    0.00079471   -0.00045966
     atom    5 type  1   force =     0.00074914   -0.00022936    0.00030656
     atom    6 type  1   force =     0.00038021    0.00058038    0.00115555
     atom    7 type  1   force =    -0.00048735    0.00050546    0.00049263
     atom    8 type  1   force =     0.00000476    0.00039216    0.00004015
     atom    9 type  1   force =     0.00010799    0.00018049   -0.00067151
     atom   10 type  1   force =    -0.00039893   -0.00029516   -0.00130402
     atom   11 type  1   force =    -0.00073692    0.00090592   -0.00041332
     atom   12 type  1   force =     0.00012825   -0.00050936    0.00079774
     atom   13 type  1   force =     0.00036921    0.00011562   -0.00029765
     atom   14 type  1   force =    -0.00038342    0.00023855    0.00016012
     atom   15 type  1   force =     0.00001996    0.00031280    0.00050033
     atom   16 type  1   force =    -0.00037776   -0.00039309   -0.00011476
     atom   17 type  1   force =     0.00024317    0.00074062    0.00042454
     atom   18 type  1   force =     0.00047811    0.00017818    0.00037973
     atom   19 type  1   force =     0.00021433    0.00014661   -0.00072641
     atom   20 type  1   force =    -0.00098403    0.00078475    0.00014565
     atom   21 type  1   force =    -0.00014173   -0.00067291    0.00038689
     atom   22 type  1   force =    -0.00014737   -0.00026501    0.00037230
     atom   23 type  1   force =     0.00043328    0.00039146   -0.00055623
     atom   24 type  1   force =     0.00062893    0.00014919    0.00005916
     atom   25 type  1   force =    -0.00006256   -0.00039830   -0.00062438
     atom   26 type  1   force =     0.00055861    0.00075891   -0.00082159
     atom   27 type  1   force =    -0.00012910   -0.00028001    0.00067527
     atom   28 type  1   force =    -0.00013078   -0.00021191    0.00021953
     atom   29 type  1   force =    -0.00050465    0.00021859    0.00041199
     atom   30 type  1   force =    -0.00018771    0.00044463   -0.00036473
     atom   31 type  1   force =    -0.00150827   -0.00091585   -0.00022948
     atom   32 type  1   force =    -0.00049146    0.00018551    0.00011934
     atom   33 type  1   force =    -0.00007962    0.00045099    0.00026217
     atom   34 type  1   force =    -0.00060502   -0.00025317   -0.00019615
     atom   35 type  1   force =     0.00029157    0.00028350   -0.00047395
     atom   36 type  1   force =    -0.00036386    0.00011496   -0.00013384
     atom   37 type  1   force =     0.00060083   -0.00021893    0.00022307
     atom   38 type  1   force =    -0.00018778   -0.00004455    0.00015293
     atom   39 type  1   force =     0.00039341    0.00009637   -0.00057798
     atom   40 type  1   force =    -0.00054533    0.00071018    0.00006932
     atom   41 type  1   force =    -0.00010470   -0.00026338   -0.00055076
     atom   42 type  1   force =    -0.00085040    0.00004044    0.00018673
     atom   43 type  1   force =    -0.00056695   -0.00044584   -0.00034394
     atom   44 type  1   force =    -0.00059745    0.00008686    0.00081053
     atom   45 type  1   force =     0.00022783   -0.00002786    0.00104110
     atom   46 type  1   force =     0.00038275   -0.00019071    0.00035294
     atom   47 type  1   force =     0.00022731   -0.00127744   -0.00009362
     atom   48 type  1   force =    -0.00015473   -0.00048853    0.00075439
     atom   49 type  1   force =    -0.00051242   -0.00025361    0.00004313
     atom   50 type  1   force =     0.00054672   -0.00029753    0.00010548
     atom   51 type  1   force =    -0.00083094    0.00083732    0.00025329
     atom   52 type  1   force =    -0.00022907   -0.00098488   -0.00042976
     atom   53 type  1   force =     0.00089937    0.00018523   -0.00060804
     atom   54 type  1   force =     0.00043305   -0.00051009    0.00048370
     atom   55 type  1   force =     0.00072460   -0.00005926    0.00034143
     atom   56 type  1   force =     0.00009692    0.00040847   -0.00037961
     atom   57 type  1   force =    -0.00015449   -0.00019272   -0.00063245
     atom   58 type  1   force =     0.00085414    0.00045668    0.00065768
     atom   59 type  1   force =    -0.00069410    0.00112185    0.00003284
     atom   60 type  1   force =    -0.00066825   -0.00046190    0.00035400
     atom   61 type  1   force =     0.00049275    0.00015565   -0.00045598
     atom   62 type  1   force =    -0.00034610   -0.00056804    0.00027286
     atom   63 type  1   force =     0.00023922   -0.00061484   -0.00014302
     atom   64 type  1   force =     0.00008881   -0.00039498    0.00020423
     The Hubbard contrib.    to forces
     atom    1 type  1   force =     0.00000000    0.00000000    0.00000000
     atom    2 type  1   force =     0.00000000    0.00000000    0.00000000
     atom    3 type  1   force =     0.00000000    0.00000000    0.00000000
     atom    4 type  1   force =     0.00000000    0.00000000    0.00000000
     atom    5 type  1   force =     0.00000000    0.00000000    0.00000000
     atom    6 type  1   force =     0.00000000    0.00000000    0.00000000
     atom    7 type  1   force =     0.00000000    0.00000000    0.00000000
     atom    8 type  1   force =     0.00000000    0.00000000    0.00000000
     atom    9 type  1   force =     0.00000000    0.00000000    0.00000000
     atom   10 type  1   force =     0.00000000    0.00000000    0.00000000
     atom   11 type  1   force =     0.00000000    0.00000000    0.00000000
     atom   12 type  1   force =     0.00000000    0.00000000    0.00000000
     atom   13 type  1   force =     0.00000000    0.00000000    0.00000000
     atom   14 type  1   force =     0.00000000    0.00000000    0.00000000
     atom   15 type  1   force =     0.00000000    0.00000000    0.00000000
     atom   16 type  1   force =     0.00000000    0.00000000    0.00000000
     atom   17 type  1   force =     0.00000000    0.00000000    0.00000000
     atom   18 type  1   force =     0.00000000    0.00000000    0.00000000
     atom   19 type  1   force =     0.00000000    0.00000000    0.00000000
     atom   20 type  1   force =     0.00000000    0.00000000    0.00000000
     atom   21 type  1   force =     0.00000000    0.00000000    0.00000000
     atom   22 type  1   force =     0.00000000    0.00000000    0.00000000
     atom   23 type  1   force =     0.00000000    0.00000000    0.00000000
     atom   24 type  1   force =     0.00000000    0.00000000    0.00000000
     atom   25 type  1   force =     0.00000000    0.00000000    0.00000000
     atom   26 type  1   force =     0.00000000    0.00000000    0.00000000
     atom   27 type  1   force =     0.00000000    0.00000000    0.00000000
     atom   28 type  1   force =     0.00000000    0.00000000    0.00000000
     atom   29 type  1   force =     0.00000000    0.00000000    0.00000000
     atom   30 type  1   force =     0.00000000    0.00000000    0.00000000
     atom   31 type  1   force =     0.00000000    0.00000000    0.00000000
     atom   32 type  1   force =     0.00000000    0.00000000    0.00000000
     atom   33 type  1   force =     0.00000000    0.00000000    0.00000000
     atom   34 type  1   force =     0.00000000    0.00000000    0.00000000
     atom   35 type  1   force =     0.00000000    0.00000000    0.00000000
     atom   36 type  1   force =     0.00000000    0.00000000    0.00000000
     atom   37 type  1   force =     0.00000000    0.00000000    0.00000000
     atom   38 type  1   force =     0.00000000    0.00000000    0.00000000
     atom   39 type  1   force =     0.00000000    0.00000000    0.00000000
     atom   40 type  1   force =     0.00000000    0.00000000    0.00000000
     atom   41 type  1   force =     0.00000000    0.00000000    0.00000000
     atom   42 type  1   force =     0.00000000    0.00000000    0.00000000
     atom   43 type  1   force =     0.00000000    0.00000000    0.00000000
     atom   44 type  1   force =     0.00000000    0.00000000    0.00000000
     atom   45 type  1   force =     0.00000000    0.00000000    0.00000000
     atom   46 type  1   force =     0.00000000    0.00000000    0.00000000
     atom   47 type  1   force =     0.00000000    0.00000000    0.00000000
     atom   48 type  1   force =     0.00000000    0.00000000    0.00000000
     atom   49 type  1   force =     0.00000000    0.00000000    0.00000000
     atom   50 type  1   force =     0.00000000    0.00000000    0.00000000
     atom   51 type  1   force =     0.00000000    0.00000000    0.00000000
     atom   52 type  1   force =     0.00000000    0.00000000    0.00000000
     atom   53 type  1   force =     0.00000000    0.00000000    0.00000000
     atom   54 type  1   force =     0.00000000    0.00000000    0.00000000
     atom   55 type  1   force =     0.00000000    0.00000000    0.00000000
     atom   56 type  1   force =     0.00000000    0.00000000    0.00000000
     atom   57 type  1   force =     0.00000000    0.00000000    0.00000000
     atom   58 type  1   force =     0.00000000    0.00000000    0.00000000
     atom   59 type  1   force =     0.00000000    0.00000000    0.00000000
     atom   60 type  1   force =     0.00000000    0.00000000    0.00000000
     atom   61 type  1   force =     0.00000000    0.00000000    0.00000000
     atom   62 type  1   force =     0.00000000    0.00000000    0.00000000
     atom   63 type  1   force =     0.00000000    0.00000000    0.00000000
     atom   64 type  1   force =     0.00000000    0.00000000    0.00000000
     The SCF correction term to forces
     atom    1 type  1   force =    -0.00000318    0.00000038   -0.00000293
     atom    2 type  1   force =    -0.00000651    0.00000359    0.00000448
     atom    3 type  1   force =     0.00000265    0.00000057    0.00000234
     atom    4 type  1   force =     0.00000476    0.00000616   -0.00000710
     atom    5 type  1   force =    -0.00000409   -0.00000861   -0.00000643
     atom    6 type  1   force =     0.00001098    0.00000705    0.00001299
     atom    7 type  1   force =    -0.00000397   -0.00000379   -0.00000085
     atom    8 type  1   force =     0.00000491   -0.00000438    0.00001089
     atom    9 type  1   force =    -0.00000104    0.00000188   -0.00000360
     atom   10 type  1   force =     0.00000964   -0.00000296   -0.00001021
     atom   11 type  1   force =    -0.00000595   -0.00000142    0.00000259
     atom   12 type  1   force =    -0.00000606   -0.00000102    0.00000690
     atom   13 type  1   force =    -0.00000808   -0.00000340   -0.00000107
     atom   14 type  1   force =     0.00000448   -0.00000692    0.00000626
     atom   15 type  1   force =    -0.00000094    0.00000690    0.00000189
     atom   16 type  1   force =     0.00001010   -0.00000795    0.00000540
     atom   17 type  1   force =    -0.00000244    0.00000213    0.00001371
     atom   18 type  1   force =     0.00001006   -0.00000486    0.00001090
     atom   19 type  1   force =    -0.00000092   -0.00000248   -0.00000368
     atom   20 type  1   force =    -0.00000119    0.00000431   -0.00000729
     atom   21 type  1   force =    -0.00000233   -0.00000115    0.00000576
     atom   22 type  1   force =     0.00000767    0.00000336    0.00001828
     atom   23 type  1   force =    -0.00000661   -0.00000188   -0.00000077
     atom   24 type  1   force =     0.00000064   -0.00000150    0.00000913
     atom   25 type  1   force =     0.00001063   -0.00000530   -0.00000715
     atom   26 type  1   force =    -0.00001140    0.00000288   -0.00000046
     atom   27 type  1   force =    -0.00000307    0.00000460   -0.00000831
     atom   28 type  1   force =    -0.00000524    0.00000042   -0.00000552
     atom   29 type  1   force =    -0.00000946    0.00000370   -0.00001537
     atom   30 type  1   force =    -0.00001004   -0.00000231   -0.00000509
     atom   31 type  1   force =     0.00000468    0.00000229    0.00001008
     atom   32 type  1   force =    -0.00000314   -0.00000263    0.00000641
     atom   33 type  1   force =     0.00001055    0.00000495    0.00001753
     atom   34 type  1   force =     0.00000672   -0.00000471   -0.00001252
     atom   35 type  1   force =     0.00000895   -0.00000655    0.00000016
     atom   36 type  1   force =     0.00000220    0.00000844   -0.00001534
     atom   37 type  1   force =     0.00000117   -0.00000068    0.00000425
     atom   38 type  1   force =    -0.00000945    0.00000244   -0.00000943
     atom   39 type  1   force =     0.00000259    0.00000194   -0.00001949
     atom   40 type  1   force =     0.00000287    0.00000445   -0.00000877
     atom   41 type  1   force =     0.00000488   -0.00000003   -0.00000157
     atom   42 type  1   force =    -0.00000315   -0.00000172   -0.00000970
     atom   43 type  1   force =    -0.00000910    0.00000183    0.00000843
     atom   44 type  1   force =    -0.00000377   -0.00000046    0.00000695
     atom   45 type  1   force =     0.00001077    0.00000222   -0.00000592
     atom   46 type  1   force =     0.00000854    0.00000343   -0.00001050
     atom   47 type  1   force =     0.00000314   -0.00000172   -0.00000565
     atom   48 type  1   force =    -0.00000290   -0.00000093    0.00000211
     atom   49 type  1   force =    -0.00001261   -0.00000255   -0.00000994
     atom   50 type  1   force =    -0.00000145   -0.00000558   -0.00000414
     atom   51 type  1   force =     0.00000875   -0.00000118   -0.00001190
     atom   52 type  1   force =    -0.00000890    0.00000101    0.00000214
     atom   53 type  1   force =     0.00001186    0.00000987   -0.00000935
     atom   54 type  1   force =     0.00001163   -0.00000994   -0.00000767
     atom   55 type  1   force =    -0.00000415    0.00000403   -0.00000642
     atom   56 type  1   force =    -0.00000159    0.00000630    0.00001308
     atom   57 type  1   force =     0.00000393    0.00000114    0.00000787
     atom   58 type  1   force =    -0.00000470   -0.00000308    0.00000466
     atom   59 type  1   force =    -0.00000062    0.00000292    0.00000060
     atom   60 type  1   force =     0.00000356    0.00000734    0.00000992
     atom   61 type  1   force =    -0.00000733   -0.00000017    0.00000510
     atom   62 type  1   force =     0.00000007   -0.00000324   -0.00000663
     atom   63 type  1   force =    -0.00001305   -0.00000354    0.00000371
     atom   64 type  1   force =    -0.00000874   -0.00000452    0.00000144

     Total force =     1.028311     Total SCF correction =     0.000094


     entering subroutine stress ...


     negative rho (up, down):  0.818E-03 0.000E+00
          total   stress  (Ry/bohr**3)                   (kbar)     P=        186.36
   0.00123955   0.00007620   0.00015035        182.34     11.21     22.12
   0.00007620   0.00115136  -0.00005682         11.21    169.37     -8.36
   0.00015035  -0.00005682   0.00140965         22.12     -8.36    207.37

     kinetic stress (kbar)   1592.28     -2.55     -0.70
                               -2.55   1590.12      0.90
                               -0.70      0.90   1585.95

     local   stress (kbar)   -307.20    -26.48   -111.41
                              -26.48   -346.77     39.83
                             -111.41     39.83   -378.57

     nonloc. stress (kbar)   1770.84      9.26     18.89
                                9.26   1764.77     -9.17
                               18.89     -9.17   1798.83

     hartree stress (kbar)     72.87      4.51     19.30
                                4.51     78.60     -3.35
                               19.30     -3.35     63.91

     exc-cor stress (kbar)   -631.01     -0.04     -0.06
                               -0.04   -630.90      0.02
                               -0.06      0.02   -631.10

     corecor stress (kbar)    -31.30     -0.04     -0.11
                               -0.04    -31.30      0.06
                               -0.11      0.06    -31.47

     ewald   stress (kbar)  -2284.13     26.54     96.21
                               26.54  -2255.15    -36.64
                               96.21    -36.64  -2200.20

     hubbard stress (kbar)      0.00      0.00      0.00
                                0.00      0.00      0.00
                                0.00      0.00      0.00

     london  stress (kbar)      0.00      0.00      0.00
                                0.00      0.00      0.00
                                0.00      0.00      0.00

     dft-nl  stress (kbar)      0.00      0.00      0.00
                                0.00      0.00      0.00
                                0.00      0.00      0.00





     init_run     :      2.20s CPU      2.25s WALL (       1 calls)
     electrons    : 801147.67s CPU 808031.79s WALL (   10001 calls)
     update_pot   :  11761.15s CPU  11795.41s WALL (   10000 calls)
     forces       :   6920.13s CPU   6940.40s WALL (   10001 calls)
     stress       :   7879.40s CPU   7893.94s WALL (   10001 calls)

     Called by init_run:
     wfcinit      :      0.75s CPU      0.77s WALL (       1 calls)
     potinit      :      1.15s CPU      1.19s WALL (       1 calls)

     Called by electrons:
     c_bands      : 506695.77s CPU 511721.91s WALL (  192657 calls)
     sum_band     :  34812.31s CPU  35049.75s WALL (  192657 calls)
     v_of_rho     :   4255.24s CPU   4282.76s WALL (  202657 calls)
     v_h          :    190.73s CPU    193.62s WALL (  202657 calls)
     v_xc         :   4454.86s CPU   4481.77s WALL (  222659 calls)
     newd         :   5767.59s CPU   5794.20s WALL (  202657 calls)
     mix_rho      :  52290.74s CPU  52428.23s WALL (  192657 calls)

     Called by c_bands:
     init_us_2    :    495.22s CPU    574.74s WALL (  395315 calls)
     regterg      : 506204.83s CPU 511157.31s WALL (  192657 calls)

     Called by sum_band:
     sum_band:bec :     65.61s CPU     65.82s WALL (  192657 calls)
     addusdens    :   4777.16s CPU   4790.42s WALL (  192657 calls)

     Called by *egterg:
     h_psi        : 113669.04s CPU 114556.59s WALL (  701740 calls)
     s_psi        :  23558.73s CPU  23593.78s WALL (  701740 calls)
     g_psi        :    168.65s CPU    169.69s WALL (  509082 calls)
     rdiaghg      : 162114.15s CPU 162253.60s WALL (  691738 calls)
     regterg:over :  99629.09s CPU  99779.85s WALL (  509082 calls)
     regterg:upda :  31297.51s CPU  31355.74s WALL (  509082 calls)
     regterg:last :  35640.25s CPU  35676.70s WALL (  202657 calls)

     Called by h_psi:
     h_psi:vloc   :  44257.86s CPU  44978.14s WALL (  701740 calls)
     h_psi:vnl    :  68895.03s CPU  69056.62s WALL (  701740 calls)
     add_vuspsi   :  23698.95s CPU  23742.60s WALL (  701740 calls)

     General routines
     calbec       :  71149.03s CPU  71327.76s WALL (  954402 calls)
     fft          :   2556.10s CPU   2579.69s WALL ( 2884568 calls)
     fftw         :  50864.52s CPU  51698.22s WALL (******** calls)
     davcio       :    161.15s CPU    603.66s WALL (  192657 calls)

     Parallel routines
     fft_scatter  :  15024.48s CPU  15406.37s WALL (******** calls)

     PAW routines
     PAW_pot      : 215726.27s CPU 215936.86s WALL (  212657 calls)
     PAW_ddot     :  51801.24s CPU  51918.78s WALL ( 5829237 calls)

     PWSCF        :     9d   17h11m CPU        9d   19h 8m WALL


   This run was terminated on:  14:38: 9  16May2019            

=------------------------------------------------------------------------------=
   JOB DONE.
=------------------------------------------------------------------------------=
