ITEM: TIMESTEP
0
ITEM: NUMBER OF ATOMS
64
ITEM: BOX BOUNDS pp pp pp
0.0000000000000000e+00 1.0202600000000000e+01
0.0000000000000000e+00 1.0202600000000000e+01
0.0000000000000000e+00 1.0202600000000000e+01
ITEM: ATOMS id type x y z vx vy vz 
1 1 0 0 0 -13.7079 -6.40634 -0.1182 
2 1 2.55065 0 0 -17.95 5.32049 20.9854 
5 1 0 2.55065 0 -16.6853 21.8345 25.3929 
6 1 2.55065 2.55065 0 9.16601 -0.0199009 4.32778 
17 1 0 0 2.55065 11.0015 -0.710907 20.7309 
18 1 2.55065 0 2.55065 10.5727 -11.9869 -13.108 
21 1 0 2.55065 2.55065 4.00139 -19.2852 -16.5846 
22 1 2.55065 2.55065 2.55065 -11.0915 9.70933 11.6443 
3 1 5.1013 0 0 0.826956 -1.45662 4.71412 
4 1 7.65195 0 0 -15.0389 -2.74132 -2.48435 
7 1 5.1013 2.55065 0 -3.16543 18.2912 3.45854 
8 1 7.65195 2.55065 0 23.6054 -21.8914 -8.00388 
19 1 5.1013 0 2.55065 22.5515 5.54581 13.35 
20 1 7.65195 0 2.55065 -1.76817 -4.68776 5.71804 
23 1 5.1013 2.55065 2.55065 11.0301 -12.2991 13.6709 
24 1 7.65195 2.55065 2.55065 19.5431 5.18717 -2.09993 
9 1 0 5.1013 0 11.2776 7.9366 -17.3643 
10 1 2.55065 5.1013 0 -6.82815 9.88353 -17.4577 
13 1 0 7.65195 0 -14.3646 -5.71642 14.3937 
14 1 2.55065 7.65195 0 -3.83778 3.14132 10.7765 
25 1 0 5.1013 2.55065 -11.3852 1.0626 13.5043 
26 1 2.55065 5.1013 2.55065 -20.7207 7.16733 14.2462 
29 1 0 7.65195 2.55065 7.04635 4.43785 19.7797 
30 1 2.55065 7.65195 2.55065 -9.75265 -9.67604 -6.45534 
11 1 5.1013 5.1013 0 1.16611 -17.8955 -18.8949 
12 1 7.65195 5.1013 0 -6.60867 2.77586 -20.6399 
15 1 5.1013 7.65195 0 12.8436 11.5369 -22.7254 
16 1 7.65195 7.65195 0 22.5868 7.0762 10.3278 
27 1 5.1013 5.1013 2.55065 -18.8844 21.5597 -9.76938 
28 1 7.65195 5.1013 2.55065 5.34754 -14.1708 -3.61181 
31 1 5.1013 7.65195 2.55065 17.6094 -19.4897 -3.31055 
32 1 7.65195 7.65195 2.55065 -5.60698 -15.7778 -6.76923 
33 1 0 0 5.1013 15.0214 -0.334995 -18.4751 
34 1 2.55065 0 5.1013 1.69355 -23.571 -0.544074 
37 1 0 2.55065 5.1013 -20.0208 -6.44016 22.7256 
38 1 2.55065 2.55065 5.1013 24.181 -7.96429 -16.8772 
49 1 0 0 7.65195 -2.8277 -22.1165 2.15469 
50 1 2.55065 0 7.65195 -9.77143 19.5463 5.73785 
53 1 0 2.55065 7.65195 -14.8501 16.1346 -21.3445 
54 1 2.55065 2.55065 7.65195 20.6215 -5.12879 -14.6098 
35 1 5.1013 0 5.1013 19.3005 18.444 8.62141 
36 1 7.65195 0 5.1013 13.4784 -12.4001 -8.47488 
39 1 5.1013 2.55065 5.1013 0.159693 19.7513 1.28981 
40 1 7.65195 2.55065 5.1013 -7.99351 -11.9926 -8.82025 
51 1 5.1013 0 7.65195 -7.9665 -1.61319 -14.8949 
52 1 7.65195 0 7.65195 2.12551 -7.88513 -16.9279 
55 1 5.1013 2.55065 7.65195 14.3616 -1.99616 4.30801 
56 1 7.65195 2.55065 7.65195 9.45466 21.8294 -11.6058 
41 1 0 5.1013 5.1013 -9.48156 12.7753 -6.02185 
42 1 2.55065 5.1013 5.1013 9.90763 -3.45354 2.3425 
45 1 0 7.65195 5.1013 -9.98319 8.69468 9.30679 
46 1 2.55065 7.65195 5.1013 1.17141 21.9446 2.62613 
57 1 0 5.1013 7.65195 -10.4387 -8.76177 -15.8999 
58 1 2.55065 5.1013 7.65195 15.1022 -22.4567 2.38516 
61 1 0 7.65195 7.65195 -1.1531 -16.1436 6.08107 
62 1 2.55065 7.65195 7.65195 -5.27316 -23.1858 18.9858 
43 1 5.1013 5.1013 5.1013 -7.03145 -6.53061 -19.0418 
44 1 7.65195 5.1013 5.1013 -12.5353 -11.2056 10.2356 
47 1 5.1013 7.65195 5.1013 -20.3185 16.8692 5.25924 
48 1 7.65195 7.65195 5.1013 -19.3328 23.8255 -21.5746 
59 1 5.1013 5.1013 7.65195 19.9706 -4.34143 11.4667 
60 1 7.65195 5.1013 7.65195 -16.5776 7.90306 10.1922 
63 1 5.1013 7.65195 7.65195 2.80093 9.43145 22.9202 
64 1 7.65195 7.65195 7.65195 -6.57526 22.118 10.8501 
ITEM: TIMESTEP
4
ITEM: NUMBER OF ATOMS
64
ITEM: BOX BOUNDS pp pp pp
0.0000000000000000e+00 1.0202600000000000e+01
0.0000000000000000e+00 1.0202600000000000e+01
0.0000000000000000e+00 1.0202600000000000e+01
ITEM: ATOMS id type x y z vx vy vz 
1 1 -0.0137094 -0.00639843 -0.000114406 -13.7127 -6.38124 -0.106116 
2 1 2.5327 0.00531924 0.0209732 -17.9367 5.31651 20.9461 
5 1 -0.0166687 2.57248 0.0253725 -16.6323 21.8084 25.3277 
6 1 2.55981 2.55063 0.00432425 9.13832 -0.012677 4.31658 
17 1 0.0109991 -0.000713581 2.57137 10.9937 -0.719541 20.6857 
18 1 2.56123 -0.0119811 2.53755 10.5902 -11.9686 -13.0765 
21 1 0.0040031 2.53137 2.53408 4.00684 -19.2603 -16.5262 
22 1 2.53957 2.56036 2.56229 -11.0661 9.69627 11.6162 
3 1 5.10212 -0.00144808 0.00471221 0.795054 -1.42938 4.70813 
4 1 7.63691 -0.00274318 -0.00248659 -15.0323 -2.74739 -2.49148 
7 1 5.09814 2.56893 0.00346259 -3.13713 18.2514 3.47154 
8 1 7.67554 2.52877 -0.00800401 23.5546 -21.8689 -8.00445 
19 1 5.12384 0.00553535 2.564 22.5214 5.51241 13.3395 
20 1 7.65019 -0.00468802 2.55636 -1.73988 -4.68859 5.69747 
23 1 5.11233 2.53836 2.56432 11.0212 -12.2653 13.6529 
24 1 7.67149 2.55583 2.54855 19.5265 5.17158 -2.11204 
9 1 0.0112709 5.10924 -0.0173577 11.2562 7.93706 -17.3434 
10 1 2.54383 5.11118 -0.0174452 -6.8083 9.87408 -17.4179 
13 1 -0.0143532 7.64624 0.0143938 -14.3276 -5.70728 14.394 
14 1 2.54681 7.65509 0.0107751 -3.82974 3.15311 10.772 
25 1 -0.0113845 5.10236 2.56414 -11.3828 1.04728 13.4663 
26 1 2.52993 5.10846 2.56489 -20.7149 7.15415 14.2141 
29 1 0.00703982 7.65639 2.57043 7.02542 4.43223 19.7694 
30 1 2.54091 7.64228 2.5442 -9.71619 -9.66781 -6.43719 
11 1 5.10246 5.08342 -0.0188837 1.15179 -17.8493 -18.8588 
12 1 7.64535 5.10407 -0.0206276 -6.59213 2.76169 -20.6003 
15 1 5.11414 7.66348 -0.02271 12.8381 11.5056 -22.6757 
16 1 7.67453 7.65902 0.0103255 22.5561 7.06582 10.3204 
27 1 5.08242 5.12284 2.54087 -18.8729 21.5062 -9.79036 
28 1 7.65729 5.08713 2.54704 5.31424 -14.1601 -3.61404 
31 1 5.1189 7.63248 2.54734 17.5723 -19.4398 -3.31901 
32 1 7.64635 7.63617 2.54388 -5.5798 -15.775 -6.77091 
33 1 0.0150198 -0.000332438 5.08284 15.016 -0.326813 -18.4301 
34 1 2.55235 -0.0235575 5.10076 1.71787 -23.5271 -0.545127 
37 1 -0.0200077 2.54422 5.12401 -19.9794 -6.41903 22.6672 
38 1 2.57481 2.54268 5.08443 24.1296 -7.97675 -16.8571 
49 1 -0.00282745 -0.0221071 7.6541 -2.82687 -22.0868 2.13942 
50 1 2.54088 0.0195324 7.65769 -9.76809 19.5022 5.74919 
53 1 -0.0148339 2.56677 7.63063 -14.7984 16.0823 -21.2711 
54 1 2.57126 2.54552 7.63734 20.5883 -5.12576 -14.5991 
35 1 5.1206 0.0184461 5.10992 19.2862 18.4508 8.60749 
36 1 7.66543 -0.0123918 5.09283 13.4912 -12.3731 -8.46735 
39 1 5.10146 2.5704 5.10259 0.16965 19.7366 1.30572 
40 1 7.64395 2.53866 5.09248 -8.00165 -11.9986 -8.82208 
51 1 5.09333 -0.00161145 7.63707 -7.96625 -1.60761 -14.8631 
52 1 7.65407 -0.00786875 7.63503 2.11369 -7.83273 -16.9112 
55 1 5.11566 2.54865 7.65626 14.3643 -2.00607 4.30949 
56 1 7.6614 2.57247 7.64035 9.44188 21.801 -11.6013 
41 1 -0.00947668 5.11407 5.09528 -9.46606 12.7626 -6.0186 
42 1 2.56055 5.09785 5.10365 9.87821 -3.43689 2.35712 
45 1 -0.0099838 7.66064 5.11061 -9.9852 8.68759 9.3213 
46 1 2.55181 7.67388 5.10393 1.14523 21.8898 2.6328 
57 1 -0.0104339 5.09254 7.63605 -10.4235 -8.74934 -15.8983 
58 1 2.56575 5.07885 7.65433 15.0862 -22.4471 2.36887 
61 1 -0.00115443 7.63581 7.65803 -1.15741 -16.1459 6.09036 
62 1 2.54538 7.62877 7.67093 -5.26423 -23.1592 18.966 
43 1 5.09427 5.09478 5.08227 -7.02173 -6.48942 -19.0172 
44 1 7.63942 5.0901 5.11153 -12.5278 -11.18 10.2311 
47 1 5.08098 7.66881 5.10656 -20.3083 16.8514 5.27079 
48 1 7.63262 7.67576 5.07974 -19.3307 23.7684 -21.5428 
59 1 5.12126 5.09696 7.6634 19.9392 -4.32395 11.4148 
60 1 7.63538 5.10921 7.66213 -16.5436 7.93138 10.1674 
63 1 5.1041 7.66138 7.67485 2.78493 9.41207 22.8688 
64 1 7.64538 7.67406 7.66279 -6.56373 22.0835 10.8233 
ITEM: TIMESTEP
8
ITEM: NUMBER OF ATOMS
64
ITEM: BOX BOUNDS pp pp pp
0.0000000000000000e+00 1.0202600000000000e+01
0.0000000000000000e+00 1.0202600000000000e+01
0.0000000000000000e+00 1.0202600000000000e+01
ITEM: ATOMS id type x y z vx vy vz 
1 1 -0.0274283 -0.0127476 -0.00020489 -13.7269 -6.30863 -0.0705136 
2 1 2.51478 0.0106306 0.0418667 -17.8987 5.30491 20.8253 
5 1 -0.0332309 2.59425 0.0506153 -16.4719 21.7355 25.1346 
6 1 2.56891 2.55063 0.00862662 9.05652 0.00889762 4.28444 
17 1 0.0219828 -0.00144476 2.59199 10.9708 -0.746313 20.5463 
18 1 2.57184 -0.0239264 2.52452 10.6427 -11.916 -12.9786 
21 1 0.00801696 2.51214 2.51763 4.02278 -19.188 -16.3509 
22 1 2.52853 2.57003 2.57386 -10.992 9.65904 11.5296 
3 1 5.10287 -0.00284212 0.00941311 0.699565 -1.34884 4.69205 
4 1 7.62189 -0.00549905 -0.00498721 -15.0125 -2.76714 -2.51224 
7 1 5.09504 2.58713 0.00695142 -3.05386 18.1285 3.51122 
8 1 7.69903 2.50693 -0.01601 23.3997 -21.8038 -8.00849 
19 1 5.14632 0.0110042 2.57732 22.4289 5.41313 13.3075 
20 1 7.64849 -0.00937764 2.56203 -1.65358 -4.69091 5.63536 
23 1 5.12334 2.52614 2.57794 10.995 -12.166 13.5989 
24 1 7.69099 2.56098 2.54642 19.4769 5.12412 -2.14786 
9 1 0.022499 5.11717 -0.034675 11.1919 7.93811 -17.2849 
10 1 2.53705 5.12104 -0.0348118 -6.74779 9.84669 -17.3015 
13 1 -0.0286309 7.64054 0.0287884 -14.213 -5.67979 14.3956 
14 1 2.543 7.65826 0.0215408 -3.80609 3.18907 10.7572 
25 1 -0.0227638 5.10339 2.57756 -11.3745 1.00222 13.354 
26 1 2.50922 5.1156 2.57906 -20.6968 7.11379 14.1215 
29 1 0.0140376 7.66081 2.59018 6.96229 4.41504 19.7383 
30 1 2.53124 7.63262 2.53779 -9.60861 -9.64265 -6.3825 
11 1 5.10359 5.06563 -0.0376942 1.10832 -17.709 -18.7479 
12 1 7.63878 5.10682 -0.0411753 -6.54262 2.72149 -20.4796 
15 1 5.12697 7.67494 -0.0453183 12.8232 11.4138 -22.5201 
16 1 7.69704 7.66608 0.0206357 22.4605 7.03557 10.2971 
27 1 5.06356 5.14428 2.53106 -18.8413 21.3435 -9.85355 
28 1 7.66256 5.07299 2.54342 5.21469 -14.1258 -3.62042 
31 1 5.13642 7.6131 2.54401 17.4629 -19.286 -3.34159 
32 1 7.64081 7.6204 2.53711 -5.49607 -15.7677 -6.77579 
33 1 0.0300283 -0.000648522 5.06447 14.9989 -0.302303 -18.292 
34 1 2.5541 -0.0470247 5.10021 1.79147 -23.3885 -0.547277 
37 1 -0.0399349 2.53782 5.1466 -19.8615 -6.3586 22.4883 
38 1 2.59888 2.53469 5.0676 23.9818 -8.01442 -16.7944 
49 1 -0.00565317 -0.0441566 7.65622 -2.82422 -22.0026 2.09405 
50 1 2.53112 0.0389782 7.66346 -9.75851 19.3744 5.78251 
53 1 -0.0295647 2.58278 7.60945 -14.6442 15.928 -21.0497 
54 1 2.59181 2.5404 7.62276 20.4936 -5.11553 -14.5695 
35 1 5.13986 0.0369061 5.11851 19.2454 18.4718 8.56455 
36 1 7.67894 -0.0247281 5.08437 13.5311 -12.2883 -8.44408 
39 1 5.10165 2.59011 5.10392 0.201983 19.6912 1.35487 
40 1 7.63594 2.52665 5.08365 -8.02749 -12.0175 -8.82719 
51 1 5.08537 -0.00321169 7.62224 -7.96695 -1.59076 -14.7681 
52 1 7.65617 -0.0156329 7.61814 2.07842 -7.67606 -16.8627 
55 1 5.13003 2.54663 7.66057 14.3726 -2.0363 4.3137 
56 1 7.67082 2.59424 7.62875 9.40083 21.7195 -11.5887 
41 1 -0.0189229 5.12682 5.08927 -9.42103 12.7259 -6.00703 
42 1 2.57039 5.09444 5.10602 9.79051 -3.38924 2.40147 
45 1 -0.0199719 7.66932 5.11995 -9.9919 8.66708 9.36504 
46 1 2.55292 7.69569 5.10657 1.06471 21.7199 2.65222 
57 1 -0.0208384 5.08381 7.62015 -10.3809 -8.70933 -15.8925 
58 1 2.58081 5.05641 7.65668 15.0409 -22.4173 2.31926 
61 1 -0.00231778 7.61966 7.66414 -1.17121 -16.1528 6.11804 
62 1 2.54013 7.60565 7.68987 -5.23744 -23.0857 18.9068 
43 1 5.08726 5.08835 5.06328 -6.99125 -6.366 -18.9468 
44 1 7.6269 5.07895 5.12176 -12.5057 -11.1075 10.2182 
47 1 5.06069 7.68564 5.11185 -20.275 16.8005 5.30358 
48 1 7.61329 7.69945 5.05823 -19.3253 23.5983 -21.4505 
59 1 5.14116 5.09266 7.67475 19.8404 -4.27229 11.259 
60 1 7.61889 5.11718 7.67227 -16.4371 8.01626 10.0897 
63 1 5.10686 7.67076 7.69765 2.73567 9.35413 22.7086 
64 1 7.63883 7.69609 7.67358 -6.52879 21.9775 10.7481 
ITEM: TIMESTEP
12
ITEM: NUMBER OF ATOMS
64
ITEM: BOX BOUNDS pp pp pp
0.0000000000000000e+00 1.0202600000000000e+01
0.0000000000000000e+00 1.0202600000000000e+01
0.0000000000000000e+00 1.0202600000000000e+01
ITEM: ATOMS id type x y z vx vy vz 
1 1 10.1614 10.1836 10.2024 -13.7518 -6.19237 -0.0126241 
2 1 2.49691 0.0159269 0.0625975 -17.8401 5.28658 20.6202 
5 1 10.153 2.61594 0.0756051 -16.2046 21.6288 24.8231 
6 1 2.5779 2.55065 0.0128873 8.92209 0.0447212 4.2337 
17 1 0.0329362 10.2004 2.61243 10.9338 -0.792903 20.3106 
18 1 2.58252 10.1668 2.51162 10.7305 -11.833 -12.8098 
21 1 0.012052 2.49301 2.50142 4.04996 -19.0746 -16.0597 
22 1 2.5176 2.57967 2.58533 -10.8749 9.60183 11.3826 
3 1 5.1035 10.1985 0.014094 0.540772 -1.21626 4.66864 
4 1 7.60689 10.1943 10.1951 -14.9797 -2.80304 -2.54583 
7 1 5.09205 2.60516 0.0104937 -2.9176 17.9169 3.57873 
8 1 7.72231 2.48517 10.1786 23.1409 -21.7005 -8.02032 
19 1 5.16868 0.0163413 2.59061 22.2723 5.24925 13.2541 
20 1 7.6469 10.1885 2.56762 -1.50731 -4.69464 5.53134 
23 1 5.13431 2.51405 2.5915 10.9521 -12.0049 13.5097 
24 1 7.71043 2.56607 2.54424 19.3966 5.04343 -2.20685 
9 1 0.0336412 5.12511 10.1507 11.0846 7.93907 -17.1975 
10 1 2.53035 5.13087 10.1506 -6.64661 9.8037 -17.1132 
13 1 10.1598 7.63488 0.043186 -14.0162 -5.63472 14.4007 
14 1 2.53921 7.66148 0.0322856 -3.76751 3.24998 10.73 
25 1 10.1685 5.10435 2.59083 -11.3583 0.928694 13.1699 
26 1 2.48854 5.12268 2.59311 -20.6671 7.04588 13.9746 
29 1 0.0209512 7.66521 2.6099 6.85694 4.38666 19.6874 
30 1 2.52171 7.623 2.53145 -9.43259 -9.60013 -6.2909 
11 1 5.10467 5.04803 10.1462 1.03479 -17.4728 -18.5602 
12 1 7.63227 5.10951 10.141 -6.46051 2.65832 -20.2755 
15 1 5.13979 7.68629 10.1349 12.8019 11.2655 -22.2474 
16 1 7.71943 7.67309 0.0309143 22.2955 6.98709 10.2566 
27 1 5.04474 5.16549 2.52115 -18.7951 21.0684 -9.95968 
28 1 7.6677 5.05889 2.5398 5.04935 -14.0654 -3.63069 
31 1 5.1538 7.59394 2.54065 17.2844 -19.0229 -3.37508 
32 1 7.63538 7.60464 2.53033 -5.3528 -15.7577 -6.78394 
33 1 0.0450136 10.2017 5.04628 14.9692 -0.262198 -18.058 
34 1 2.55595 10.1323 5.09966 1.91554 -23.1434 -0.549245 
37 1 10.1429 2.53151 5.16895 -19.6759 -6.26514 22.1847 
38 1 2.62275 2.52664 5.05085 23.7477 -8.07831 -16.6871 
49 1 10.1941 10.1365 7.65828 -2.81959 -21.8711 2.01923 
50 1 2.52136 0.0582572 7.66926 -9.7436 19.1701 5.83663 
53 1 10.1585 2.59859 7.58858 -14.3906 15.6792 -20.6803 
54 1 2.61223 2.53529 7.60821 20.3459 -5.0973 -14.5251 
35 1 5.15908 0.0553943 5.12704 19.1819 18.5073 8.49137 
36 1 7.6925 10.1657 5.07594 13.6007 -12.1405 -8.40418 
39 1 5.10187 2.60977 5.10532 0.259905 19.615 1.43976 
40 1 7.62789 2.51462 5.07482 -8.07313 -12.0517 -8.83559 
51 1 5.0774 10.1978 7.60755 -7.97074 -1.56295 -14.6115 
52 1 7.65822 10.1794 7.60131 2.01976 -7.41623 -16.7861 
55 1 5.14441 2.54457 7.66489 14.3879 -2.08701 4.31997 
56 1 7.68019 2.61589 7.61717 9.32901 21.591 -11.5689 
41 1 10.1743 5.13952 5.08327 -9.34933 12.6677 -5.98489 
42 1 2.58011 5.09108 5.10846 9.64695 -3.31429 2.47617 
45 1 10.1726 7.67797 5.12935 -10.0042 8.63561 9.43856 
46 1 2.55392 7.71728 5.10924 0.926738 21.4243 2.68329 
57 1 10.1714 5.07513 7.60427 -10.3155 -8.63967 -15.8822 
58 1 2.59582 5.03402 7.65896 14.9721 -22.3667 2.23583 
61 1 10.1991 7.6035 7.67028 -1.19595 -16.1661 6.16309 
62 1 2.53491 7.58261 7.70873 -5.19186 -22.9749 18.8089 
43 1 5.0803 5.08208 5.04438 -6.93814 -6.16165 -18.8363 
44 1 7.61441 5.0679 5.13197 -12.4699 -10.9945 10.1984 
47 1 5.04044 7.70241 5.11718 -20.2142 16.7204 5.35575 
48 1 7.59397 7.72292 5.03685 -19.3196 23.3177 -21.3024 
59 1 5.16092 5.08843 7.68589 19.6685 -4.18813 11.0005 
60 1 7.60253 5.12526 7.6823 -16.2532 8.1576 9.9547 
63 1 5.10956 7.68007 7.72023 2.65116 9.25792 22.4291 
64 1 7.63233 7.71799 7.68428 -6.4713 21.7989 10.633 
ITEM: TIMESTEP
16
ITEM: NUMBER OF ATOMS
64
ITEM: BOX BOUNDS pp pp pp
0.0000000000000000e+00 1.0202600000000000e+01
0.0000000000000000e+00 1.0202600000000000e+01
0.0000000000000000e+00 1.0202600000000000e+01
ITEM: ATOMS id type x y z vx vy vz 
1 1 10.1477 10.1775 10.2024 -13.7876 -6.03726 0.0663271 
2 1 2.47911 0.0212039 0.0830809 -17.7698 5.26652 20.3311 
5 1 10.137 2.6375 0.100226 -15.8312 21.5027 24.3994 
6 1 2.58674 2.55072 0.0170885 8.73891 0.094659 4.16508 
17 1 0.0438462 10.1996 2.63258 10.8838 -0.860067 19.9711 
18 1 2.59331 10.155 2.49892 10.8539 -11.7229 -12.5663 
21 1 0.0161203 2.47401 2.48555 4.08864 -18.9279 -15.6551 
22 1 2.5068 2.58923 2.59661 -10.7184 9.52814 11.1751 
3 1 5.10393 10.1973 0.018749 0.319236 -1.03315 4.6406 
4 1 7.59193 10.1915 10.1925 -14.9343 -2.85721 -2.5903 
7 1 5.08922 2.62293 0.0141177 -2.7308 17.6117 3.67466 
8 1 7.74528 2.46353 10.1705 22.7781 -21.5672 -8.04323 
19 1 5.19085 0.0214837 2.60382 22.0494 5.02369 13.18 
20 1 7.64549 10.1838 2.57308 -1.29823 -4.70228 5.38555 
23 1 5.14524 2.50215 2.60495 10.8963 -11.786 13.3851 
24 1 7.72978 2.57106 2.542 19.288 4.9284 -2.28841 
9 1 0.0446558 5.13305 10.1335 10.937 7.93618 -17.0897 
10 1 2.52377 5.14065 10.1336 -6.50327 9.74636 -16.858 
13 1 10.146 7.62928 0.0575939 -13.7284 -5.57559 14.4162 
14 1 2.53546 7.66477 0.0429965 -3.71442 3.33644 10.6891 
25 1 10.1571 5.10523 2.60388 -11.3334 0.82878 12.9174 
26 1 2.46789 5.12968 2.60699 -20.6277 6.95139 13.7822 
29 1 0.0277386 7.66958 2.62955 6.7102 4.34705 19.617 
30 1 2.51239 7.61342 2.52522 -9.19258 -9.5401 -6.1639 
11 1 5.10565 5.03071 10.1278 0.931852 -17.1407 -18.2946 
12 1 7.62587 5.11213 10.1209 -6.3453 2.57504 -19.9849 
15 1 5.15258 7.69746 10.1128 12.7769 11.0663 -21.8452 
16 1 7.74161 7.68004 0.0411432 22.0546 6.92184 10.1975 
27 1 5.02597 5.18638 2.51112 -18.7435 20.6768 -10.1081 
28 1 7.67264 5.04487 2.53616 4.81914 -13.9773 -3.64664 
31 1 5.17097 7.57509 2.53725 17.0433 -18.6437 -3.41797 
32 1 7.63012 7.58889 2.52354 -5.14759 -15.7469 -6.79492 
33 1 0.0599628 10.2014 5.02838 14.9273 -0.204513 -17.7232 
34 1 2.55795 10.1093 5.09911 2.09069 -22.7757 -0.549935 
37 1 10.1233 2.5253 5.19093 -19.4367 -6.14782 21.7542 
38 1 2.64635 2.51852 5.03424 23.4392 -8.16956 -16.5333 
49 1 10.1913 10.1147 7.66025 -2.81182 -21.7046 1.91707 
50 1 2.51163 0.0772975 7.67513 -9.72637 18.898 5.91044 
53 1 10.1443 2.61412 7.56814 -14.0453 15.3471 -20.165 
54 1 2.63249 2.53021 7.59371 20.154 -5.07087 -14.4728 
35 1 5.17822 0.0739262 5.13548 19.102 18.5596 8.38784 
36 1 7.70615 10.1536 5.06757 13.704 -11.9239 -8.34749 
39 1 5.10218 2.62933 5.10681 0.346316 19.5078 1.56259 
40 1 7.61979 2.50254 5.06598 -8.13857 -12.1036 -8.84777 
51 1 5.06942 10.1963 7.59304 -7.97979 -1.52512 -14.3952 
52 1 7.6602 10.1722 7.58457 1.94002 -7.05396 -16.6855 
55 1 5.15881 2.54245 7.66921 14.4121 -2.15656 4.32845 
56 1 7.68947 2.63741 7.60561 9.22609 21.4239 -11.5437 
41 1 10.165 5.15215 5.0773 -9.25573 12.5924 -5.95233 
42 1 2.58967 5.08781 5.11099 9.4502 -3.21556 2.5812 
45 1 10.1626 7.68659 5.13884 -10.0275 8.59686 9.54328 
46 1 2.55476 7.7385 5.11194 0.729224 20.9908 2.72564 
57 1 10.1611 5.06654 7.58839 -10.2313 -8.54075 -15.8662 
58 1 2.61075 5.01168 7.66114 14.885 -22.2973 2.11773 
61 1 10.1979 7.58732 7.67647 -1.23223 -16.1867 6.22582 
62 1 2.52975 7.5597 7.72748 -5.12667 -22.8387 18.6791 
43 1 5.07339 5.07605 5.02562 -6.86092 -5.87763 -18.6927 
44 1 7.60196 5.05698 5.14216 -12.425 -10.8465 10.1738 
47 1 5.02027 7.71908 5.12256 -20.1223 16.617 5.42448 
48 1 7.57465 7.74605 5.01564 -19.3198 22.9278 -21.1073 
59 1 5.18047 5.08429 7.69672 19.4181 -4.0759 10.6417 
60 1 7.58641 5.13351 7.69216 -15.9857 8.35678 9.75767 
63 1 5.11215 7.68927 7.74247 2.53067 9.12457 22.0182 
64 1 7.62589 7.73967 7.69484 -6.39187 21.5487 10.4871 
ITEM: TIMESTEP
20
ITEM: NUMBER OF ATOMS
64
ITEM: BOX BOUNDS pp pp pp
0.0000000000000000e+00 1.0202600000000000e+01
0.0000000000000000e+00 1.0202600000000000e+01
0.0000000000000000e+00 1.0202600000000000e+01
ITEM: ATOMS id type x y z vx vy vz 
1 1 10.1339 10.1715 10.2025 -13.8347 -5.84866 0.164658 
2 1 2.46138 0.0264584 0.10323 -17.6911 5.24264 19.9506 
5 1 10.1214 2.65894 0.124372 -15.3572 21.3749 23.8722 
6 1 2.59537 2.55085 0.0212132 8.51304 0.159346 4.0815 
17 1 0.0547004 10.1987 2.65234 10.8227 -0.950073 19.5223 
18 1 2.60424 10.1434 2.48651 11.0134 -11.5929 -12.2384 
21 1 0.0202333 2.45516 2.47014 4.13968 -18.7554 -15.1394 
22 1 2.49617 2.59872 2.60766 -10.5281 9.44189 10.9041 
3 1 5.10412 10.1964 0.0233746 0.0376334 -0.803109 4.61048 
4 1 7.57703 10.1886 10.1899 -14.8788 -2.93257 -2.64471 
7 1 5.08661 2.64035 0.0178526 -2.49648 17.2068 3.80099 
8 1 7.76783 2.44204 10.1625 22.3135 -21.4066 -8.08326 
19 1 5.21276 0.0263697 2.61696 21.7589 4.73705 13.0857 
20 1 7.64433 10.1791 2.57838 -1.0244 -4.71317 5.19785 
23 1 5.1561 2.49049 2.61826 10.8297 -11.5158 13.2273 
24 1 7.749 2.57592 2.53966 19.1542 4.77963 -2.39187 
9 1 0.0555021 5.14098 10.1165 10.7484 7.92778 -16.9699 
10 1 2.51735 5.15036 10.1169 -6.32021 9.67532 -16.5437 
13 1 10.1324 7.62374 0.0720207 -13.3428 -5.50153 14.4398 
14 1 2.53178 7.66816 0.0536592 -3.64647 3.44732 10.6332 
25 1 10.1458 5.106 2.61664 -11.3045 0.708639 12.6055 
26 1 2.44729 5.13658 2.62066 -20.578 6.83053 13.5504 
29 1 0.0343581 7.6739 2.64913 6.52169 4.2968 19.5294 
30 1 2.50335 7.60392 2.51913 -8.89328 -9.46357 -6.00179 
11 1 5.10652 5.01378 10.1097 0.801592 -16.7077 -17.9513 
12 1 7.61959 5.11465 10.1011 -6.19911 2.4747 -19.602 
15 1 5.16534 7.7084 10.0912 12.7546 10.8196 -21.3 
16 1 7.76351 7.68693 0.0513041 21.7335 6.84115 10.1208 
27 1 5.00725 5.20681 2.50092 -18.6924 20.1647 -10.3027 
28 1 7.67731 5.03094 2.5325 4.52555 -13.8589 -3.66751 
31 1 5.18787 7.55669 2.53381 16.7427 -18.1444 -3.46501 
32 1 7.6251 7.57314 2.51674 -4.87809 -15.7372 -6.80907 
33 1 0.0748662 10.2013 5.01087 14.8794 -0.126081 -17.2814 
34 1 2.56015 10.0868 5.09856 2.31649 -22.2713 -0.547904 
37 1 10.104 2.51922 5.21241 -19.155 -6.013 21.1903 
38 1 2.66961 2.5103 5.0178 23.0619 -8.28753 -16.3279 
49 1 10.1885 10.0931 7.6621 -2.80382 -21.5082 1.78842 
50 1 2.50191 0.0960347 7.68109 -9.70661 18.5656 6.00431 
53 1 10.1304 2.62926 7.54829 -13.6162 14.936 -19.5032 
54 1 2.65253 2.52515 7.57927 19.9289 -5.03441 -14.4152 
35 1 5.19728 0.0925187 5.1438 19.0118 18.6292 8.25172 
36 1 7.71992 10.1418 5.05925 13.8442 -11.6335 -8.27338 
39 1 5.10258 2.64878 5.10845 0.462488 19.3701 1.7254 
40 1 7.61161 2.4904 5.05713 -8.22546 -12.1725 -8.8653 
51 1 5.06144 10.1948 7.57878 -7.99803 -1.47906 -14.121 
52 1 7.66209 10.1653 7.56795 1.83833 -6.589 -16.5637 
55 1 5.17324 2.54025 7.67355 14.4508 -2.24349 4.34324 
56 1 7.69864 2.65873 7.59408 9.0928 21.2261 -11.5165 
41 1 10.1558 5.1647 5.07137 -9.14131 12.5019 -5.90799 
42 1 2.599 5.08466 5.11363 9.20289 -3.10074 2.71547 
45 1 10.1526 7.69517 5.14845 -10.0604 8.55316 9.68059 
46 1 2.55536 7.75921 5.11469 0.469147 20.4067 2.77988 
57 1 10.151 5.05806 7.57254 -10.1337 -8.41442 -15.8464 
58 1 2.62559 4.98943 7.66318 14.7852 -22.2076 1.96563 
61 1 10.1966 7.57112 7.68273 -1.28207 -16.214 6.30579 
62 1 2.52466 7.53694 7.74608 -5.04418 -22.6822 18.5145 
43 1 5.06658 5.07034 5.00701 -6.75847 -5.51467 -18.5243 
44 1 7.58956 5.04622 5.15231 -12.3729 -10.6723 10.1446 
47 1 5.00021 7.73563 5.12803 -19.997 16.4938 5.50501 
48 1 7.55533 7.76874 4.99465 -19.3278 22.4303 -20.8689 
59 1 5.19973 5.08029 7.70714 19.0808 -3.93717 10.1836 
60 1 7.57059 5.14199 7.70179 -15.6276 8.61056 9.49288 
63 1 5.11461 7.69831 7.76423 2.37184 8.95743 21.4666 
64 1 7.61955 7.76106 7.70524 -6.29149 21.2232 10.319 
ITEM: TIMESTEP
24
ITEM: NUMBER OF ATOMS
64
ITEM: BOX BOUNDS pp pp pp
0.0000000000000000e+00 1.0202600000000000e+01
0.0000000000000000e+00 1.0202600000000000e+01
0.0000000000000000e+00 1.0202600000000000e+01
ITEM: ATOMS id type x y z vx vy vz 
1 1 10.12 10.1658 10.2027 -13.894 -5.63393 0.277347 
2 1 2.44373 0.031689 0.122954 -17.6068 5.21842 19.4786 
5 1 10.1063 2.68026 0.147936 -14.786 21.2594 23.2342 
6 1 2.60375 2.55105 0.0252475 8.24769 0.23776 3.98466 
17 1 0.0654886 10.1977 2.67159 10.7521 -1.06162 18.9545 
18 1 2.61535 10.1318 2.47447 11.2128 -11.4498 -11.8253 
21 1 0.0244038 2.4365 2.45531 4.20421 -18.5644 -14.5084 
22 1 2.48575 2.60811 2.6184 -10.3083 9.34694 10.5682 
3 1 5.10399 10.1957 0.0279702 -0.305192 -0.527996 4.58163 
4 1 7.56218 10.1856 10.1872 -14.8146 -3.03014 -2.7094 
7 1 5.08425 2.65731 0.0217299 -2.21587 16.6996 3.95935 
8 1 7.78987 2.42072 10.1544 21.7483 -21.2295 -8.14688 
19 1 5.23434 0.0309396 2.62999 21.3988 4.39329 12.974 
20 1 7.64347 10.1744 2.58346 -0.682375 -4.72866 4.96814 
23 1 5.1669 2.47913 2.6314 10.7549 -11.1912 13.0392 
24 1 7.76808 2.58061 2.53721 18.9958 4.59504 -2.51392 
9 1 0.0661401 5.14891 10.0996 10.5199 7.91428 -16.8414 
10 1 2.51114 5.15999 10.1005 -6.0953 9.59563 -16.1737 
13 1 10.1193 7.61828 0.0864773 -12.8561 -5.41369 14.4761 
14 1 2.52818 7.67168 0.0642581 -3.56447 3.58505 10.5616 
25 1 10.1345 5.10665 2.62907 -11.2677 0.569749 12.2349 
26 1 2.42674 5.14334 2.63408 -20.5208 6.68396 13.2862 
29 1 0.0407703 7.67817 2.6686 6.29656 4.23575 19.4235 
30 1 2.49462 7.5945 2.51322 -8.54047 -9.36878 -5.80258 
11 1 5.10725 4.99733 10.0919 0.645151 -16.1736 -17.5304 
12 1 7.61348 5.11707 10.0817 -6.02315 2.36183 -19.1232 
15 1 5.17809 7.71908 10.0703 12.7358 10.5303 -20.5923 
16 1 7.78505 7.69372 0.061377 21.323 6.74848 10.0205 
27 1 4.98858 5.22667 2.49051 -18.6511 19.5278 -10.5381 
28 1 7.68167 5.01716 2.52882 4.17011 -13.7081 -3.69346 
31 1 5.20444 7.53885 2.53033 16.3934 -17.5176 -3.51028 
32 1 7.62039 7.55741 2.50992 -4.54501 -15.7309 -6.82131 
33 1 0.0897175 10.2012 4.99386 14.8214 -0.0254878 -16.7218 
34 1 2.5626 10.0648 5.09802 2.59216 -21.6117 -0.541562 
37 1 10.085 2.51328 5.23326 -18.8386 -5.86802 20.4842 
38 1 2.69246 2.50194 5.0016 22.6257 -8.43315 -16.0703 
49 1 10.1857 10.0717 7.66382 -2.79503 -21.2905 1.63858 
50 1 2.49222 0.11441 7.68715 -9.68904 18.1738 6.11278 
53 1 10.1171 2.64396 7.52918 -13.1044 14.451 -18.6821 
54 1 2.67233 2.52014 7.56488 19.676 -4.98759 -14.3616 
35 1 5.21624 0.11119 5.15197 18.9142 18.7162 8.08196 
36 1 7.73385 10.1304 5.05103 14.0229 -11.2661 -8.18013 
39 1 5.10311 2.66806 5.11028 0.610278 19.2017 1.9303 
40 1 7.60333 2.47819 5.04825 -8.33171 -12.2605 -8.88563 
51 1 5.05342 10.1933 7.56481 -8.02826 -1.4265 -13.7945 
52 1 7.66387 10.159 7.55145 1.71681 -6.02338 -16.4266 
55 1 5.18771 2.53796 7.6779 14.5031 -2.34851 4.36236 
56 1 7.70765 2.67985 7.58258 8.9259 21.0028 -11.4848 
41 1 10.1467 5.17715 5.06549 -9.00956 12.398 -5.84894 
42 1 2.60806 5.08162 5.11643 8.90951 -2.97099 2.87897 
45 1 10.1425 7.7037 5.15821 -10.1069 8.50719 9.8486 
46 1 2.55568 7.77926 5.1175 0.14348 19.6539 2.84216 
57 1 10.1409 5.04972 7.5567 -10.0284 -8.25372 -15.8205 
58 1 2.64032 4.96727 7.66506 14.6771 -22.0979 1.78071 
61 1 10.1953 7.55489 7.68908 -1.34657 -16.2526 6.40035 
62 1 2.51967 7.51434 7.7645 -4.94401 -22.5108 18.3191 
43 1 5.05989 5.06504 4.98857 -6.62993 -5.07348 -18.3395 
44 1 7.57722 5.03564 5.16244 -12.3148 -10.4751 10.1124 
47 1 4.98029 7.75206 5.13358 -19.8334 16.3558 5.59523 
48 1 7.53599 7.79088 4.97392 -19.3477 21.8241 -20.5951 
59 1 5.2186 5.07643 7.71705 18.649 -3.77833 9.62666 
60 1 7.55518 5.15075 7.71112 -15.1672 8.91674 9.15594 
63 1 5.11688 7.70717 7.78535 2.17715 8.75691 20.7544 
64 1 7.61332 7.78209 7.71547 -6.17052 20.8227 10.1365 
ITEM: TIMESTEP
28
ITEM: NUMBER OF ATOMS
64
ITEM: BOX BOUNDS pp pp pp
0.0000000000000000e+00 1.0202600000000000e+01
0.0000000000000000e+00 1.0202600000000000e+01
0.0000000000000000e+00 1.0202600000000000e+01
ITEM: ATOMS id type x y z vx vy vz 
1 1 10.1061 10.1603 10.2031 -13.9658 -5.39446 0.405658 
2 1 2.42616 0.0368953 0.142159 -17.525 5.1946 18.9132 
5 1 10.0918 2.70147 0.170807 -14.1148 21.1621 22.4876 
6 1 2.61185 2.55133 0.0291789 7.94677 0.329967 3.87669 
17 1 0.0762031 10.1965 2.6902 10.6765 -1.19885 18.253 
18 1 2.62668 10.1205 2.46289 11.4504 -11.298 -11.3229 
21 1 0.0286461 2.41804 2.44116 4.28236 -18.3619 -13.764 
22 1 2.47556 2.61741 2.62877 -10.0626 9.24769 10.1663 
3 1 5.10349 10.1954 0.0325395 -0.711837 -0.210544 4.55685 
4 1 7.5474 10.1825 10.1845 -14.7394 -3.14911 -2.78212 
7 1 5.08219 2.67371 0.0257817 -1.89558 16.0796 4.15037 
8 1 7.81129 2.39959 10.1462 21.0737 -21.037 -8.23225 
19 1 5.25553 0.0351399 2.6429 20.967 3.9974 12.8447 
20 1 7.64298 10.1697 2.5883 -0.272465 -4.74853 4.69591 
23 1 5.17761 2.46813 2.64433 10.671 -10.8181 12.8187 
24 1 7.78698 2.58509 2.53463 18.8149 4.37353 -2.65465 
9 1 0.076529 5.15681 10.0828 10.2504 7.89179 -16.7126 
10 1 2.50517 5.16955 10.0845 -5.82904 9.5072 -15.7535 
13 1 10.1067 7.61291 0.100978 -12.2505 -5.31592 14.5283 
14 1 2.52466 7.67534 0.0747762 -3.46943 3.74733 10.471 
25 1 10.1233 5.10714 2.6411 -11.2245 0.412007 11.8068 
26 1 2.40625 5.14994 2.64723 -20.4568 6.50918 12.9915 
29 1 0.0469412 7.68237 2.68797 6.03824 4.16398 19.3007 
30 1 2.48628 7.58519 2.50754 -8.13722 -9.25626 -5.56773 
11 1 5.10781 4.98147 10.0746 0.461639 -15.5309 -17.0336 
12 1 7.60755 5.11937 10.0629 -5.81841 2.23979 -18.5488 
15 1 5.19082 7.72945 10.0501 12.7274 10.2021 -19.7095 
16 1 7.80613 7.70042 0.0713371 20.8106 6.6487 9.89422 
27 1 4.96995 5.24583 2.47984 -18.625 18.7619 -10.8098 
28 1 7.68564 5.00354 2.52511 3.75743 -13.5229 -3.72187 
31 1 5.22064 7.5217 2.52679 15.9998 -16.7568 -3.55063 
32 1 7.61603 7.54168 2.5031 -4.15225 -15.7279 -6.82805 
33 1 0.104506 10.2012 4.97747 14.7547 0.0959802 -16.0303 
34 1 2.56535 10.0436 5.09748 2.91886 -20.7836 -0.531406 
37 1 10.0664 2.50748 5.25333 -18.4931 -5.72123 19.6226 
38 1 2.71484 2.49342 4.98568 22.1371 -8.60569 -15.761 
49 1 10.1829 10.0505 7.66538 -2.78626 -21.0568 1.47129 
50 1 2.48253 0.132364 7.69332 -9.67182 17.7242 6.23606 
53 1 10.1043 2.65814 7.51098 -12.5063 13.8945 -17.693 
54 1 2.69187 2.51518 7.55054 19.4006 -4.9321 -14.3097 
35 1 5.23511 0.129956 5.15995 18.8148 18.8177 7.87505 
36 1 7.74798 10.1193 5.0429 14.2456 -10.8166 -8.06938 
39 1 5.10381 2.68717 5.11233 0.793569 19.0006 2.17649 
40 1 7.59494 2.46588 5.03936 -8.45429 -12.3632 -8.90632 
51 1 5.04538 10.1919 7.5512 -8.07159 -1.36814 -13.414 
52 1 7.66552 10.1533 7.5351 1.5756 -5.35975 -16.2759 
55 1 5.20225 2.53555 7.68227 14.5667 -2.47176 4.3886 
56 1 7.71648 2.70073 7.57111 8.72027 20.7616 -11.4513 
41 1 10.1378 5.18949 5.05967 -8.86337 12.2865 -5.77447 
42 1 2.6168 5.07872 5.1194 8.57052 -2.83156 3.07352 
45 1 10.1324 7.71218 5.16815 -10.169 8.46165 10.0465 
46 1 2.55563 7.79846 5.12038 -0.247868 18.7218 2.91049 
57 1 10.1309 5.04156 7.5409 -9.91154 -8.05565 -15.7867 
58 1 2.65494 4.94524 7.66673 14.559 -21.9652 1.56532 
61 1 10.1939 7.53862 7.69554 -1.42458 -16.2937 6.51493 
62 1 2.51478 7.49192 7.78271 -4.82864 -22.3274 18.0931 
43 1 5.05333 5.06022 4.97033 -6.47481 -4.55454 -18.1451 
44 1 7.56493 5.02527 5.17254 -12.2513 -10.2602 10.0736 
47 1 4.96055 7.76834 5.13922 -19.6292 16.2082 5.69179 
48 1 7.51662 7.81236 4.95347 -19.3848 21.1084 -20.2932 