
     Program PWSCF v.6.4.1 starts on 18Aug2020 at 22:13:11 

     This program is part of the open-source Quantum ESPRESSO suite
     for quantum simulation of materials; please cite
         "P. Giannozzi et al., J. Phys.:Condens. Matter 21 395502 (2009);
         "P. Giannozzi et al., J. Phys.:Condens. Matter 29 465901 (2017);
          URL http://www.quantum-espresso.org", 
     in publications or presentations arising from this work. More details at
     http://www.quantum-espresso.org/quote

     Parallel version (MPI), running on    56 processors

     MPI processes distributed on     1 nodes
     R & G space division:  proc/nbgrp/npool/nimage =      56
     Reading input from 3000K_2.5gcm3.in

     Program PWSCF v.6.4.1 starts on 18Aug2020 at 22:14:16 

     This program is part of the open-source Quantum ESPRESSO suite
     for quantum simulation of materials; please cite
         "P. Giannozzi et al., J. Phys.:Condens. Matter 21 395502 (2009);
         "P. Giannozzi et al., J. Phys.:Condens. Matter 29 465901 (2017);
          URL http://www.quantum-espresso.org", 
     in publications or presentations arising from this work. More details at
     http://www.quantum-espresso.org/quote

     Parallel version (MPI), running on    28 processors

     MPI processes distributed on     1 nodes
     R & G space division:  proc/nbgrp/npool/nimage =      28
     Reading input from 3000K_2.5gcm3.in

     Current dimensions of program PWSCF are:
     Max number of different atomic species (ntypx) = 10
     Max number of k-points (npk) =  40000
     Max angular momentum in pseudopotentials (lmaxx) =  3

     IMPORTANT: XC functional enforced from input :
     Exchange-correlation      = PBE ( 1  4  3  4 0 0)
     Using LIBXC version       =    4   3   4
     Any further DFT definition will be discarded
     Please, verify this is what you really want


     gamma-point specific algorithms are used

     Subspace diagonalization in iterative solution of the eigenvalue problem:
     a serial algorithm will be used


     Parallelization info
     --------------------
     sticks:   dense  smooth     PW     G-vecs:    dense   smooth      PW
     Min         228     228     56                13764    13764    1720
     Max         230     230     58                13770    13770    1730
     Sum        6393    6393   1605               385451   385451   48297


     Title: 
     water_SCAN_2000K                                                           


     bravais-lattice index     =            1
     lattice parameter (alat)  =      17.3275  a.u.
     unit-cell volume          =    5202.4238 (a.u.)^3
     number of atoms/cell      =          192
     number of atomic types    =            2
     number of electrons       =       512.00
     number of Kohn-Sham states=          290
     kinetic-energy cutoff     =      67.0000  Ry
     charge density cutoff     =     268.0000  Ry
     convergence threshold     =      1.0E-06
     mixing beta               =       0.5000
     number of iterations used =            8  plain     mixing
     Exchange-correlation      = PBE ( 1  4  3  4 0 0)
     Using LIBXC version       =    4   3   4
     nstep                     =        20000


     celldm(1)=  17.327473  celldm(2)=   0.000000  celldm(3)=   0.000000
     celldm(4)=   0.000000  celldm(5)=   0.000000  celldm(6)=   0.000000

     crystal axes: (cart. coord. in units of alat)
               a(1) = (   1.000000   0.000000   0.000000 )  
               a(2) = (   0.000000   1.000000   0.000000 )  
               a(3) = (   0.000000   0.000000   1.000000 )  

     reciprocal axes: (cart. coord. in units 2 pi/alat)
               b(1) = (  1.000000  0.000000  0.000000 )  
               b(2) = (  0.000000  1.000000  0.000000 )  
               b(3) = (  0.000000  0.000000  1.000000 )  


     PseudoPot. # 1 for O  read from file:
     ./Pseudo_Potentials/O_HSCV_PBE-1.0.UPF
     MD5 check sum: a5a52169c71ea0405bad903be39234ff
     Pseudo is Norm-conserving, Zval =  6.0
     Generated by new atomic code, or converted to UPF format
     Using radial grid of 2208 points,  1 beta functions with: 
                l(1) =   0

     PseudoPot. # 2 for H  read from file:
     ./Pseudo_Potentials/H_HSCV_PBE-1.0.UPF
     MD5 check sum: 31544ba92ee05a06ae1d082ec2460d19
     Pseudo is Norm-conserving, Zval =  1.0
     Generated by new atomic code, or converted to UPF format
     Using radial grid of 2537 points,  0 beta functions with: 

     atomic species   valence    mass     pseudopotential
        O              6.00    15.99940     O ( 1.00)
        H              1.00     2.01410     H ( 1.00)

     No symmetry found



   Cartesian axes

     site n.     atom                  positions (alat units)
         1           O   tau(   1) = (   0.6254879   0.0011099   0.7362419  )
         2           O   tau(   2) = (  -0.1246277   1.0315942   0.6889017  )
         3           O   tau(   3) = (   0.0256527   0.6624952   0.9291619  )
         4           O   tau(   4) = (   1.1277034   1.0961432   0.0772122  )
         5           O   tau(   5) = (   0.4565378   0.7808692   0.6842284  )
         6           O   tau(   6) = (   0.0929004   0.7237828   1.1075520  )
         7           O   tau(   7) = (   0.9060552   0.3182213   0.3716239  )
         8           O   tau(   8) = (   1.1378195   0.7330654   0.7514351  )
         9           O   tau(   9) = (   1.1570779   0.2171433   0.6297359  )
        10           O   tau(  10) = (   0.5042778   0.5304631   0.5204363  )
        11           O   tau(  11) = (   0.4004648   0.7394395   0.4731003  )
        12           O   tau(  12) = (  -0.0658996  -0.0633593   0.4992899  )
        13           O   tau(  13) = (   0.2687248  -0.0321651   0.1687753  )
        14           O   tau(  14) = (   1.1952162   0.8734150   0.3434473  )
        15           O   tau(  15) = (   0.6706808   0.0632462   0.2366195  )
        16           O   tau(  16) = (   0.4114058   0.6182124   0.1149590  )
        17           O   tau(  17) = (   0.7794064   0.2524378   0.6724965  )
        18           O   tau(  18) = (   0.1320823   1.0279627   0.4882425  )
        19           O   tau(  19) = (   0.5465153   0.2634503   1.0949696  )
        20           O   tau(  20) = (  -0.2293596  -0.2610001   0.3872956  )
        21           O   tau(  21) = (   0.4991240   0.8566186   0.3317298  )
        22           O   tau(  22) = (   0.6706255   0.8342135   0.2185338  )
        23           O   tau(  23) = (   0.2033112   0.2097160   0.3260765  )
        24           O   tau(  24) = (  -0.3965229   0.3295986   0.8103925  )
        25           O   tau(  25) = (   0.9133180   0.5187907   1.2678615  )
        26           O   tau(  26) = (   0.6485989   0.3605936   0.2475885  )
        27           O   tau(  27) = (   0.1401680   0.3355900   0.0306377  )
        28           O   tau(  28) = (   0.7493855   0.2952864  -0.0179122  )
        29           O   tau(  29) = (   0.2985989   1.1108943  -0.0549645  )
        30           O   tau(  30) = (  -0.0323748   0.7543862   0.5995960  )
        31           O   tau(  31) = (   0.6561721   0.5460858   0.3484122  )
        32           O   tau(  32) = (   0.7000340   1.0992473   0.4662542  )
        33           O   tau(  33) = (   0.6262534   0.5270060   0.7069524  )
        34           O   tau(  34) = (   1.0516095   1.1365310  -0.2016307  )
        35           O   tau(  35) = (   0.3660701   0.4338989   1.0218395  )
        36           O   tau(  36) = (  -0.3353132   0.8757537  -0.4392525  )
        37           O   tau(  37) = (   0.7257729   0.3589076   0.5025811  )
        38           O   tau(  38) = (   0.3632296   0.3470583   0.5499383  )
        39           O   tau(  39) = (   0.5360845   1.2390228   0.4196373  )
        40           O   tau(  40) = (  -0.2209317   1.0764128   0.0314085  )
        41           O   tau(  41) = (   0.2940311   0.4256198   0.8166645  )
        42           O   tau(  42) = (   0.8157886   0.1979917   0.2253587  )
        43           O   tau(  43) = (   0.6628737  -0.0987031  -0.0627729  )
        44           O   tau(  44) = (   0.4259684   0.1251189   0.6210316  )
        45           O   tau(  45) = (   0.7881192   0.4967640   0.0970141  )
        46           O   tau(  46) = (   0.3145240  -0.1161628  -0.1432721  )
        47           O   tau(  47) = (   0.8444997  -0.2095004   0.8713909  )
        48           O   tau(  48) = (   0.9934473   0.7915891   0.2850882  )
        49           O   tau(  49) = (   0.4324404   0.5959944  -0.1870881  )
        50           O   tau(  50) = (   0.2782302   0.7927159   0.0545788  )
        51           O   tau(  51) = (   1.1089637   0.3546979   1.4753327  )
        52           O   tau(  52) = (   0.3886427   0.2991980   1.2844283  )
        53           O   tau(  53) = (   0.0126477   0.5660543   0.4491262  )
        54           O   tau(  54) = (   0.1293698   0.5152315   0.6681507  )
        55           O   tau(  55) = (   1.1151422   0.5028873   1.1985713  )
        56           O   tau(  56) = (  -0.0382619   0.9657779   1.0055832  )
        57           O   tau(  57) = (  -0.0461917   0.4717183   0.9255007  )
        58           O   tau(  58) = (   0.2647774   0.9761747   0.6692733  )
        59           O   tau(  59) = (   0.6207977  -0.3449960   1.0971552  )
        60           O   tau(  60) = (   0.3419922   0.5175618   0.2954973  )
        61           O   tau(  61) = (   0.4467024   0.0538130   0.2843330  )
        62           O   tau(  62) = (   0.8320449   0.6185780   0.7382107  )
        63           O   tau(  63) = (  -0.0221754   0.3911179  -0.2585564  )
        64           O   tau(  64) = (  -0.6087639   0.2439108   0.7872518  )
        65           H   tau(  65) = (   0.6258919  -0.0262779   0.8062168  )
        66           H   tau(  66) = (  -0.1179151   1.0260322   0.6163966  )
        67           H   tau(  67) = (   0.0059801   0.5850066   0.9241995  )
        68           H   tau(  68) = (   1.0669260   1.0632436   0.0441302  )
        69           H   tau(  69) = (   0.4799507   0.7094060   0.6950291  )
        70           H   tau(  70) = (   1.0484968   0.6953438   1.0476379  )
        71           H   tau(  71) = (   0.9757282   0.3162202   0.4024927  )
        72           H   tau(  72) = (   1.1886465   0.7389973   0.6925543  )
        73           H   tau(  73) = (   1.2294851   0.2306804   0.6554067  )
        74           H   tau(  74) = (   0.4665646   0.4659523   0.5114811  )
        75           H   tau(  75) = (   0.4229881   0.6645065   0.4880172  )
        76           H   tau(  76) = (   0.9251393  -0.0914258   0.4268699  )
        77           H   tau(  77) = (   0.3316299   0.0035230   0.1938585  )
        78           H   tau(  78) = (   1.2561254   0.8306459   0.3589629  )
        79           H   tau(  79) = (   0.7365480   1.1043841   0.2518336  )
        80           H   tau(  80) = (   0.4088999   0.5627759   0.0620015  )
        81           H   tau(  81) = (   0.8001446   0.1772756   0.6863290  )
        82           H   tau(  82) = (   1.1580941   1.0865246   0.4453842  )
        83           H   tau(  83) = (   0.6124463   0.2695535   1.0608071  )
        84           H   tau(  84) = (  -0.1548412  -0.2781311   0.3866263  )
        85           H   tau(  85) = (   0.4669005   0.9286856   0.3357299  )
        86           H   tau(  86) = (   0.6118935   0.8388527   0.2601671  )
        87           H   tau(  87) = (   0.2747914   0.2489693   0.3191432  )
        88           H   tau(  88) = (  -0.4656164   0.3020785   0.8358294  )
        89           H   tau(  89) = (   0.9462687   0.5629757   0.3212650  )
        90           H   tau(  90) = (   0.7134839   0.3292031   0.2177395  )
        91           H   tau(  91) = (   0.1454063   0.2542514   0.0453876  )
        92           H   tau(  92) = (   0.7676362   0.3432109   0.0376941  )
        93           H   tau(  93) = (   0.3132011   1.0364162  -0.0600383  )
        94           H   tau(  94) = (  -0.0633508   0.8252498   0.5817111  )
        95           H   tau(  95) = (   0.6174640   0.5857422   0.2972131  )
        96           H   tau(  96) = (   0.7750521   1.0896671   0.4689501  )
        97           H   tau(  97) = (   0.6118595   0.5234256   0.6317472  )
        98           H   tau(  98) = (   0.9870562   1.1094782   0.7595357  )
        99           H   tau(  99) = (   0.3973249   0.3648782   1.0388315  )
       100           H   tau( 100) = (   0.7108262   0.8262576  -0.4801335  )
       101           H   tau( 101) = (   0.6758090   0.3383892   0.4539525  )
       102           H   tau( 102) = (   0.3046890   0.3714759   0.5048603  )
       103           H   tau( 103) = (   0.5929328   1.1866862   0.4353319  )
       104           H   tau( 104) = (  -0.2692473   1.0897138   0.0933401  )
       105           H   tau( 105) = (   0.3297823   0.3589693   0.8086703  )
       106           H   tau( 106) = (   0.8739295   0.1931305   0.1767547  )
       107           H   tau( 107) = (   0.6317600  -0.1242114   0.0005906  )
       108           H   tau( 108) = (   0.3775035   0.0672858   0.6420802  )
       109           H   tau( 109) = (   0.8314326   0.5020368   0.0327496  )
       110           H   tau( 110) = (   0.3218604  -0.1479445  -0.0703874  )
       111           H   tau( 111) = (   0.9001828  -0.2291653   0.9215079  )
       112           H   tau( 112) = (   1.0674746   0.8081473   0.3029795  )
       113           H   tau( 113) = (   0.4646043   0.6037632  -0.1206506  )
       114           H   tau( 114) = (   0.2055228   0.7665178   0.0587851  )
       115           H   tau( 115) = (   1.1342858   0.3003967   1.4160225  )
       116           H   tau( 116) = (   0.3729366   0.3768984   0.2797109  )
       117           H   tau( 117) = (   0.0154633   0.6339712   0.4856784  )
       118           H   tau( 118) = (   0.1670230   0.4810818   0.7233703  )
       119           H   tau( 119) = (   1.0622231   0.4854403   1.2505422  )
       120           H   tau( 120) = (  -0.1021614   0.9568482   1.0477569  )
       121           H   tau( 121) = (   1.0073649   0.4394438   0.9735085  )
       122           H   tau( 122) = (   0.2151988   0.9851214   0.6104180  )
       123           H   tau( 123) = (   0.6343071  -0.2785538   1.1468640  )
       124           H   tau( 124) = (   0.2718795   0.5083174   0.2676557  )
       125           H   tau( 125) = (   0.4418463   0.1207356   0.3269762  )
       126           H   tau( 126) = (   0.8625335   0.5489221   0.7587320  )
       127           H   tau( 127) = (   0.0224296   0.4278097  -0.3136744  )
       128           H   tau( 128) = (   0.3572394   0.1938262   0.8423481  )
       129           H   tau( 129) = (   0.6417825  -0.0579355   0.6932092  )
       130           H   tau( 130) = (  -0.1851490   0.9905473   0.7153761  )
       131           H   tau( 131) = (   0.0906944   1.6814220   0.8975465  )
       132           H   tau( 132) = (   1.1658842   1.0431603   0.1160680  )
       133           H   tau( 133) = (   0.4326317   0.8142280   0.7489221  )
       134           H   tau( 134) = (   1.0876175   0.6706935   1.1637879  )
       135           H   tau( 135) = (   0.8573330   0.3398384   0.4337373  )
       136           H   tau( 136) = (   1.0653187   0.7441510   0.7177233  )
       137           H   tau( 137) = (   1.1226900   0.1794323   0.6879279  )
       138           H   tau( 138) = (   0.5544330   0.5349960   0.4647404  )
       139           H   tau( 139) = (   0.3925883   0.7704171   0.5475316  )
       140           H   tau( 140) = (   0.0096397   0.9648977   0.4969681  )
       141           H   tau( 141) = (   0.2874746  -0.0866960   0.1184722  )
       142           H   tau( 142) = (   1.2214696   0.9133563   0.2797636  )
       143           H   tau( 143) = (   0.6879662  -0.0099580   0.2457324  )
       144           H   tau( 144) = (   0.4883659   0.6429009   0.1128201  )
       145           H   tau( 145) = (   0.7195518   0.2623358   0.7253689  )
       146           H   tau( 146) = (   0.1661870   0.9681507   0.4450780  )
       147           H   tau( 147) = (   0.5118893   0.2034426   1.0662967  )
       148           H   tau( 148) = (  -0.2699749  -0.3289731   0.3795914  )
       149           H   tau( 149) = (   0.4653272   0.8073776   0.3852745  )
       150           H   tau( 150) = (   0.7269635   0.8108602   0.2679062  )
       151           H   tau( 151) = (   0.1730276   0.2107054   0.2585687  )
       152           H   tau( 152) = (  -0.3461139   0.3173003   0.8714334  )
       153           H   tau( 153) = (   0.8876302   0.4524004   1.3135306  )
       154           H   tau( 154) = (   0.5883063   0.3289680   0.2151614  )
       155           H   tau( 155) = (   0.2141221   0.3506038   0.0066605  )
       156           H   tau( 156) = (   0.7822256   0.2311154  -0.0017877  )
       157           H   tau( 157) = (   0.2260752   1.1089765  -0.0242607  )
       158           H   tau( 158) = (  -0.0817277   0.7108092   1.6420930  )
       159           H   tau( 159) = (   0.6527788   0.4713696   0.3199992  )
       160           H   tau( 160) = (   0.6773823   1.0392525   0.5086193  )
       161           H   tau( 161) = (   0.6114555   0.4542671   0.7303440  )
       162           H   tau( 162) = (   1.0247906   1.2004890   0.8356508  )
       163           H   tau( 163) = (   0.3508947   0.4372241   0.9453459  )
       164           H   tau( 164) = (  -0.4047089  -0.1565536   0.5512650  )
       165           H   tau( 165) = (   0.7301739   0.3070324   0.5598758  )
       166           H   tau( 166) = (   0.3439401   0.3439754   0.6297614  )
       167           H   tau( 167) = (   0.5016669   1.2399668   0.4889527  )
       168           H   tau( 168) = (  -0.2611549   1.0242761  -0.0112922  )
       169           H   tau( 169) = (   0.3428686   0.4835438   0.7990773  )
       170           H   tau( 170) = (   0.8472764   0.2525871   0.2755496  )
       171           H   tau( 171) = (   0.7135647  -0.1434294  -0.0922635  )
       172           H   tau( 172) = (   0.4965089   0.0979764   0.6504359  )
       173           H   tau( 173) = (   0.8399711   0.5070204   0.1497130  )
       174           H   tau( 174) = (   1.2603648  -0.1606238  -0.1749930  )
       175           H   tau( 175) = (   0.8418846  -0.2803776   0.8288642  )
       176           H   tau( 176) = (   0.9932602   0.7919122   0.2100706  )
       177           H   tau( 177) = (   0.4907726   0.5669260  -0.2303929  )
       178           H   tau( 178) = (   0.3211137   0.7299230   0.0711081  )
       179           H   tau( 179) = (   0.1231883   0.3099094   0.5367011  )
       180           H   tau( 180) = (   0.4494026   0.2811753   0.3333448  )
       181           H   tau( 181) = (   0.0587707   0.5142195   0.4759663  )
       182           H   tau( 182) = (   0.1195884   0.5866352   0.7018922  )
       183           H   tau( 183) = (   1.1303993   0.4396904   1.1531913  )
       184           H   tau( 184) = (  -0.0587392   0.9589276   0.9335119  )
       185           H   tau( 185) = (  -0.0416851   0.4243020   0.8627248  )
       186           H   tau( 186) = (   0.2299171   0.9875239   0.7353616  )
       187           H   tau( 187) = (   0.6892291  -0.3829494   1.0923715  )
       188           H   tau( 188) = (   0.3779657   0.5556534   0.2419522  )
       189           H   tau( 189) = (   0.5233491   0.0521597   0.2638887  )
       190           H   tau( 190) = (   0.7575456   0.5960412   0.7221627  )
       191           H   tau( 191) = (  -0.0736259   0.3472105   0.7020921  )
       192           H   tau( 192) = (  -0.5904707   0.1965004   0.7247693  )

     number of k points=     1  Fermi-Dirac smearing, width (Ry)=  0.0190
                       cart. coord. in units 2pi/alat
        k(    1) = (   0.0000000   0.0000000   0.0000000), wk =   2.0000000

     Dense  grid:   192726 G-vectors     FFT dimensions: (  96,  96,  96)

     Estimated max dynamical RAM per process >      71.70 MB

     Estimated total dynamical RAM >       1.96 GB

     Initial potential from superposition of free atoms

     starting charge  511.99874, renormalised to  512.00000
     Starting wfcs are  384 randomized atomic wfcs

     total cpu time spent up to now is       10.6 secs

     Self-consistent Calculation

     iteration #  1     ecut=    67.00 Ry     beta= 0.50
     Davidson diagonalization with overlap
     ethr =  1.00E-02,  avg # of iterations =  6.0

     total cpu time spent up to now is       60.6 secs

     total energy              =   -2148.78859253 Ry
     Harris-Foulkes estimate   =   -2173.94522654 Ry
     estimated scf accuracy    <      45.41590733 Ry

     iteration #  2     ecut=    67.00 Ry     beta= 0.50
     Davidson diagonalization with overlap
     ethr =  8.87E-03,  avg # of iterations =  2.0

     total cpu time spent up to now is       93.3 secs

     total energy              =   -2155.90994274 Ry
     Harris-Foulkes estimate   =   -2156.31121705 Ry
     estimated scf accuracy    <       1.47186222 Ry

     iteration #  3     ecut=    67.00 Ry     beta= 0.50
     Davidson diagonalization with overlap
     ethr =  2.87E-04,  avg # of iterations =  6.0

     total cpu time spent up to now is      126.3 secs

     total energy              =   -2155.89071588 Ry
     Harris-Foulkes estimate   =   -2155.95431495 Ry
     estimated scf accuracy    <       0.25902923 Ry

     iteration #  4     ecut=    67.00 Ry     beta= 0.50
     Davidson diagonalization with overlap
     ethr =  5.06E-05,  avg # of iterations =  2.0

     total cpu time spent up to now is      150.2 secs

     total energy              =   -2155.90893272 Ry
     Harris-Foulkes estimate   =   -2155.91100654 Ry
     estimated scf accuracy    <       0.00619902 Ry

     iteration #  5     ecut=    67.00 Ry     beta= 0.50
     Davidson diagonalization with overlap
     ethr =  1.21E-06,  avg # of iterations =  7.0

     total cpu time spent up to now is      198.7 secs

     total energy              =   -2155.90990041 Ry
     Harris-Foulkes estimate   =   -2155.90980700 Ry
     estimated scf accuracy    <       0.00045689 Ry

     iteration #  6     ecut=    67.00 Ry     beta= 0.50
     Davidson diagonalization with overlap
     ethr =  8.92E-08,  avg # of iterations =  2.0

     total cpu time spent up to now is      222.2 secs

     total energy              =   -2155.90994502 Ry
     Harris-Foulkes estimate   =   -2155.90993996 Ry
     estimated scf accuracy    <       0.00002175 Ry

     iteration #  7     ecut=    67.00 Ry     beta= 0.50
     Davidson diagonalization with overlap
     ethr =  4.25E-09,  avg # of iterations =  2.0

     total cpu time spent up to now is      249.5 secs

     total energy              =   -2155.90994904 Ry
     Harris-Foulkes estimate   =   -2155.90994783 Ry
     estimated scf accuracy    <       0.00000260 Ry

     iteration #  8     ecut=    67.00 Ry     beta= 0.50
     Davidson diagonalization with overlap

     Program PWSCF v.6.4.1 starts on 18Aug2020 at 22:19:15 

     This program is part of the open-source Quantum ESPRESSO suite
     for quantum simulation of materials; please cite
         "P. Giannozzi et al., J. Phys.:Condens. Matter 21 395502 (2009);
         "P. Giannozzi et al., J. Phys.:Condens. Matter 29 465901 (2017);
          URL http://www.quantum-espresso.org", 
     in publications or presentations arising from this work. More details at
     http://www.quantum-espresso.org/quote

     Parallel version (MPI), running on    56 processors

     MPI processes distributed on     2 nodes
     R & G space division:  proc/nbgrp/npool/nimage =      56
     Reading input from 3000K_2.5gcm3.in

     Current dimensions of program PWSCF are:
     Max number of different atomic species (ntypx) = 10
     Max number of k-points (npk) =  40000
     Max angular momentum in pseudopotentials (lmaxx) =  3

     IMPORTANT: XC functional enforced from input :
     Exchange-correlation      = PBE ( 1  4  3  4 0 0)
     Using LIBXC version       =    4   3   4
     Any further DFT definition will be discarded
     Please, verify this is what you really want


     gamma-point specific algorithms are used

     Subspace diagonalization in iterative solution of the eigenvalue problem:
     a serial algorithm will be used


     Parallelization info
     --------------------
     sticks:   dense  smooth     PW     G-vecs:    dense   smooth      PW
     Min         113     113     27                 6878     6878     856
     Max         116     116     30                 6890     6890     870
     Sum        6393    6393   1605               385451   385451   48297


     Title: 
     water_SCAN_2000K                                                           


     bravais-lattice index     =            1
     lattice parameter (alat)  =      17.3275  a.u.
     unit-cell volume          =    5202.4238 (a.u.)^3
     number of atoms/cell      =          192
     number of atomic types    =            2
     number of electrons       =       512.00
     number of Kohn-Sham states=          290
     kinetic-energy cutoff     =      67.0000  Ry
     charge density cutoff     =     268.0000  Ry
     convergence threshold     =      1.0E-06
     mixing beta               =       0.5000
     number of iterations used =            8  plain     mixing
     Exchange-correlation      = PBE ( 1  4  3  4 0 0)
     Using LIBXC version       =    4   3   4
     nstep                     =        20000


     celldm(1)=  17.327473  celldm(2)=   0.000000  celldm(3)=   0.000000
     celldm(4)=   0.000000  celldm(5)=   0.000000  celldm(6)=   0.000000

     crystal axes: (cart. coord. in units of alat)
               a(1) = (   1.000000   0.000000   0.000000 )  
               a(2) = (   0.000000   1.000000   0.000000 )  
               a(3) = (   0.000000   0.000000   1.000000 )  

     reciprocal axes: (cart. coord. in units 2 pi/alat)
               b(1) = (  1.000000  0.000000  0.000000 )  
               b(2) = (  0.000000  1.000000  0.000000 )  
               b(3) = (  0.000000  0.000000  1.000000 )  


     PseudoPot. # 1 for O  read from file:
     ./Pseudo_Potentials/O_HSCV_PBE-1.0.UPF
     MD5 check sum: a5a52169c71ea0405bad903be39234ff
     Pseudo is Norm-conserving, Zval =  6.0
     Generated by new atomic code, or converted to UPF format
     Using radial grid of 2208 points,  1 beta functions with: 
                l(1) =   0

     PseudoPot. # 2 for H  read from file:
     ./Pseudo_Potentials/H_HSCV_PBE-1.0.UPF
     MD5 check sum: 31544ba92ee05a06ae1d082ec2460d19
     Pseudo is Norm-conserving, Zval =  1.0
     Generated by new atomic code, or converted to UPF format
     Using radial grid of 2537 points,  0 beta functions with: 

     atomic species   valence    mass     pseudopotential
        O              6.00    15.99940     O ( 1.00)
        H              1.00     2.01410     H ( 1.00)

     No symmetry found



   Cartesian axes

     site n.     atom                  positions (alat units)
         1           O   tau(   1) = (   0.6254879   0.0011099   0.7362419  )
         2           O   tau(   2) = (  -0.1246277   1.0315942   0.6889017  )
         3           O   tau(   3) = (   0.0256527   0.6624952   0.9291619  )
         4           O   tau(   4) = (   1.1277034   1.0961432   0.0772122  )
         5           O   tau(   5) = (   0.4565378   0.7808692   0.6842284  )
         6           O   tau(   6) = (   0.0929004   0.7237828   1.1075520  )
         7           O   tau(   7) = (   0.9060552   0.3182213   0.3716239  )
         8           O   tau(   8) = (   1.1378195   0.7330654   0.7514351  )
         9           O   tau(   9) = (   1.1570779   0.2171433   0.6297359  )
        10           O   tau(  10) = (   0.5042778   0.5304631   0.5204363  )
        11           O   tau(  11) = (   0.4004648   0.7394395   0.4731003  )
        12           O   tau(  12) = (  -0.0658996  -0.0633593   0.4992899  )
        13           O   tau(  13) = (   0.2687248  -0.0321651   0.1687753  )
        14           O   tau(  14) = (   1.1952162   0.8734150   0.3434473  )
        15           O   tau(  15) = (   0.6706808   0.0632462   0.2366195  )
        16           O   tau(  16) = (   0.4114058   0.6182124   0.1149590  )
        17           O   tau(  17) = (   0.7794064   0.2524378   0.6724965  )
        18           O   tau(  18) = (   0.1320823   1.0279627   0.4882425  )
        19           O   tau(  19) = (   0.5465153   0.2634503   1.0949696  )
        20           O   tau(  20) = (  -0.2293596  -0.2610001   0.3872956  )
        21           O   tau(  21) = (   0.4991240   0.8566186   0.3317298  )
        22           O   tau(  22) = (   0.6706255   0.8342135   0.2185338  )
        23           O   tau(  23) = (   0.2033112   0.2097160   0.3260765  )
        24           O   tau(  24) = (  -0.3965229   0.3295986   0.8103925  )
        25           O   tau(  25) = (   0.9133180   0.5187907   1.2678615  )
        26           O   tau(  26) = (   0.6485989   0.3605936   0.2475885  )
        27           O   tau(  27) = (   0.1401680   0.3355900   0.0306377  )
        28           O   tau(  28) = (   0.7493855   0.2952864  -0.0179122  )
        29           O   tau(  29) = (   0.2985989   1.1108943  -0.0549645  )
        30           O   tau(  30) = (  -0.0323748   0.7543862   0.5995960  )
        31           O   tau(  31) = (   0.6561721   0.5460858   0.3484122  )
        32           O   tau(  32) = (   0.7000340   1.0992473   0.4662542  )
        33           O   tau(  33) = (   0.6262534   0.5270060   0.7069524  )
        34           O   tau(  34) = (   1.0516095   1.1365310  -0.2016307  )
        35           O   tau(  35) = (   0.3660701   0.4338989   1.0218395  )
        36           O   tau(  36) = (  -0.3353132   0.8757537  -0.4392525  )
        37           O   tau(  37) = (   0.7257729   0.3589076   0.5025811  )
        38           O   tau(  38) = (   0.3632296   0.3470583   0.5499383  )
        39           O   tau(  39) = (   0.5360845   1.2390228   0.4196373  )
        40           O   tau(  40) = (  -0.2209317   1.0764128   0.0314085  )
        41           O   tau(  41) = (   0.2940311   0.4256198   0.8166645  )
        42           O   tau(  42) = (   0.8157886   0.1979917   0.2253587  )
        43           O   tau(  43) = (   0.6628737  -0.0987031  -0.0627729  )
        44           O   tau(  44) = (   0.4259684   0.1251189   0.6210316  )
        45           O   tau(  45) = (   0.7881192   0.4967640   0.0970141  )
        46           O   tau(  46) = (   0.3145240  -0.1161628  -0.1432721  )
        47           O   tau(  47) = (   0.8444997  -0.2095004   0.8713909  )
        48           O   tau(  48) = (   0.9934473   0.7915891   0.2850882  )
        49           O   tau(  49) = (   0.4324404   0.5959944  -0.1870881  )
        50           O   tau(  50) = (   0.2782302   0.7927159   0.0545788  )
        51           O   tau(  51) = (   1.1089637   0.3546979   1.4753327  )
        52           O   tau(  52) = (   0.3886427   0.2991980   1.2844283  )
        53           O   tau(  53) = (   0.0126477   0.5660543   0.4491262  )
        54           O   tau(  54) = (   0.1293698   0.5152315   0.6681507  )
        55           O   tau(  55) = (   1.1151422   0.5028873   1.1985713  )
        56           O   tau(  56) = (  -0.0382619   0.9657779   1.0055832  )
        57           O   tau(  57) = (  -0.0461917   0.4717183   0.9255007  )
        58           O   tau(  58) = (   0.2647774   0.9761747   0.6692733  )
        59           O   tau(  59) = (   0.6207977  -0.3449960   1.0971552  )
        60           O   tau(  60) = (   0.3419922   0.5175618   0.2954973  )
        61           O   tau(  61) = (   0.4467024   0.0538130   0.2843330  )
        62           O   tau(  62) = (   0.8320449   0.6185780   0.7382107  )
        63           O   tau(  63) = (  -0.0221754   0.3911179  -0.2585564  )
        64           O   tau(  64) = (  -0.6087639   0.2439108   0.7872518  )
        65           H   tau(  65) = (   0.6258919  -0.0262779   0.8062168  )
        66           H   tau(  66) = (  -0.1179151   1.0260322   0.6163966  )
        67           H   tau(  67) = (   0.0059801   0.5850066   0.9241995  )
        68           H   tau(  68) = (   1.0669260   1.0632436   0.0441302  )
        69           H   tau(  69) = (   0.4799507   0.7094060   0.6950291  )
        70           H   tau(  70) = (   1.0484968   0.6953438   1.0476379  )
        71           H   tau(  71) = (   0.9757282   0.3162202   0.4024927  )
        72           H   tau(  72) = (   1.1886465   0.7389973   0.6925543  )
        73           H   tau(  73) = (   1.2294851   0.2306804   0.6554067  )
        74           H   tau(  74) = (   0.4665646   0.4659523   0.5114811  )
        75           H   tau(  75) = (   0.4229881   0.6645065   0.4880172  )
        76           H   tau(  76) = (   0.9251393  -0.0914258   0.4268699  )
        77           H   tau(  77) = (   0.3316299   0.0035230   0.1938585  )
        78           H   tau(  78) = (   1.2561254   0.8306459   0.3589629  )
        79           H   tau(  79) = (   0.7365480   1.1043841   0.2518336  )
        80           H   tau(  80) = (   0.4088999   0.5627759   0.0620015  )
        81           H   tau(  81) = (   0.8001446   0.1772756   0.6863290  )
        82           H   tau(  82) = (   1.1580941   1.0865246   0.4453842  )
        83           H   tau(  83) = (   0.6124463   0.2695535   1.0608071  )
        84           H   tau(  84) = (  -0.1548412  -0.2781311   0.3866263  )
        85           H   tau(  85) = (   0.4669005   0.9286856   0.3357299  )
        86           H   tau(  86) = (   0.6118935   0.8388527   0.2601671  )
        87           H   tau(  87) = (   0.2747914   0.2489693   0.3191432  )
        88           H   tau(  88) = (  -0.4656164   0.3020785   0.8358294  )
        89           H   tau(  89) = (   0.9462687   0.5629757   0.3212650  )
        90           H   tau(  90) = (   0.7134839   0.3292031   0.2177395  )
        91           H   tau(  91) = (   0.1454063   0.2542514   0.0453876  )
        92           H   tau(  92) = (   0.7676362   0.3432109   0.0376941  )
        93           H   tau(  93) = (   0.3132011   1.0364162  -0.0600383  )
        94           H   tau(  94) = (  -0.0633508   0.8252498   0.5817111  )
        95           H   tau(  95) = (   0.6174640   0.5857422   0.2972131  )
        96           H   tau(  96) = (   0.7750521   1.0896671   0.4689501  )
        97           H   tau(  97) = (   0.6118595   0.5234256   0.6317472  )
        98           H   tau(  98) = (   0.9870562   1.1094782   0.7595357  )
        99           H   tau(  99) = (   0.3973249   0.3648782   1.0388315  )
       100           H   tau( 100) = (   0.7108262   0.8262576  -0.4801335  )
       101           H   tau( 101) = (   0.6758090   0.3383892   0.4539525  )
       102           H   tau( 102) = (   0.3046890   0.3714759   0.5048603  )
       103           H   tau( 103) = (   0.5929328   1.1866862   0.4353319  )
       104           H   tau( 104) = (  -0.2692473   1.0897138   0.0933401  )
       105           H   tau( 105) = (   0.3297823   0.3589693   0.8086703  )
       106           H   tau( 106) = (   0.8739295   0.1931305   0.1767547  )
       107           H   tau( 107) = (   0.6317600  -0.1242114   0.0005906  )
       108           H   tau( 108) = (   0.3775035   0.0672858   0.6420802  )
       109           H   tau( 109) = (   0.8314326   0.5020368   0.0327496  )
       110           H   tau( 110) = (   0.3218604  -0.1479445  -0.0703874  )
       111           H   tau( 111) = (   0.9001828  -0.2291653   0.9215079  )
       112           H   tau( 112) = (   1.0674746   0.8081473   0.3029795  )
       113           H   tau( 113) = (   0.4646043   0.6037632  -0.1206506  )
       114           H   tau( 114) = (   0.2055228   0.7665178   0.0587851  )
       115           H   tau( 115) = (   1.1342858   0.3003967   1.4160225  )
       116           H   tau( 116) = (   0.3729366   0.3768984   0.2797109  )
       117           H   tau( 117) = (   0.0154633   0.6339712   0.4856784  )
       118           H   tau( 118) = (   0.1670230   0.4810818   0.7233703  )
       119           H   tau( 119) = (   1.0622231   0.4854403   1.2505422  )
       120           H   tau( 120) = (  -0.1021614   0.9568482   1.0477569  )
       121           H   tau( 121) = (   1.0073649   0.4394438   0.9735085  )
       122           H   tau( 122) = (   0.2151988   0.9851214   0.6104180  )
       123           H   tau( 123) = (   0.6343071  -0.2785538   1.1468640  )
       124           H   tau( 124) = (   0.2718795   0.5083174   0.2676557  )
       125           H   tau( 125) = (   0.4418463   0.1207356   0.3269762  )
       126           H   tau( 126) = (   0.8625335   0.5489221   0.7587320  )
       127           H   tau( 127) = (   0.0224296   0.4278097  -0.3136744  )
       128           H   tau( 128) = (   0.3572394   0.1938262   0.8423481  )
       129           H   tau( 129) = (   0.6417825  -0.0579355   0.6932092  )
       130           H   tau( 130) = (  -0.1851490   0.9905473   0.7153761  )
       131           H   tau( 131) = (   0.0906944   1.6814220   0.8975465  )
       132           H   tau( 132) = (   1.1658842   1.0431603   0.1160680  )
       133           H   tau( 133) = (   0.4326317   0.8142280   0.7489221  )
       134           H   tau( 134) = (   1.0876175   0.6706935   1.1637879  )
       135           H   tau( 135) = (   0.8573330   0.3398384   0.4337373  )
       136           H   tau( 136) = (   1.0653187   0.7441510   0.7177233  )
       137           H   tau( 137) = (   1.1226900   0.1794323   0.6879279  )
       138           H   tau( 138) = (   0.5544330   0.5349960   0.4647404  )
       139           H   tau( 139) = (   0.3925883   0.7704171   0.5475316  )
       140           H   tau( 140) = (   0.0096397   0.9648977   0.4969681  )
       141           H   tau( 141) = (   0.2874746  -0.0866960   0.1184722  )
       142           H   tau( 142) = (   1.2214696   0.9133563   0.2797636  )
       143           H   tau( 143) = (   0.6879662  -0.0099580   0.2457324  )
       144           H   tau( 144) = (   0.4883659   0.6429009   0.1128201  )
       145           H   tau( 145) = (   0.7195518   0.2623358   0.7253689  )
       146           H   tau( 146) = (   0.1661870   0.9681507   0.4450780  )
       147           H   tau( 147) = (   0.5118893   0.2034426   1.0662967  )
       148           H   tau( 148) = (  -0.2699749  -0.3289731   0.3795914  )
       149           H   tau( 149) = (   0.4653272   0.8073776   0.3852745  )
       150           H   tau( 150) = (   0.7269635   0.8108602   0.2679062  )
       151           H   tau( 151) = (   0.1730276   0.2107054   0.2585687  )
       152           H   tau( 152) = (  -0.3461139   0.3173003   0.8714334  )
       153           H   tau( 153) = (   0.8876302   0.4524004   1.3135306  )
       154           H   tau( 154) = (   0.5883063   0.3289680   0.2151614  )
       155           H   tau( 155) = (   0.2141221   0.3506038   0.0066605  )
       156           H   tau( 156) = (   0.7822256   0.2311154  -0.0017877  )
       157           H   tau( 157) = (   0.2260752   1.1089765  -0.0242607  )
       158           H   tau( 158) = (  -0.0817277   0.7108092   1.6420930  )
       159           H   tau( 159) = (   0.6527788   0.4713696   0.3199992  )
       160           H   tau( 160) = (   0.6773823   1.0392525   0.5086193  )
       161           H   tau( 161) = (   0.6114555   0.4542671   0.7303440  )
       162           H   tau( 162) = (   1.0247906   1.2004890   0.8356508  )
       163           H   tau( 163) = (   0.3508947   0.4372241   0.9453459  )
       164           H   tau( 164) = (  -0.4047089  -0.1565536   0.5512650  )
       165           H   tau( 165) = (   0.7301739   0.3070324   0.5598758  )
       166           H   tau( 166) = (   0.3439401   0.3439754   0.6297614  )
       167           H   tau( 167) = (   0.5016669   1.2399668   0.4889527  )
       168           H   tau( 168) = (  -0.2611549   1.0242761  -0.0112922  )
       169           H   tau( 169) = (   0.3428686   0.4835438   0.7990773  )
       170           H   tau( 170) = (   0.8472764   0.2525871   0.2755496  )
       171           H   tau( 171) = (   0.7135647  -0.1434294  -0.0922635  )
       172           H   tau( 172) = (   0.4965089   0.0979764   0.6504359  )
       173           H   tau( 173) = (   0.8399711   0.5070204   0.1497130  )
       174           H   tau( 174) = (   1.2603648  -0.1606238  -0.1749930  )
       175           H   tau( 175) = (   0.8418846  -0.2803776   0.8288642  )
       176           H   tau( 176) = (   0.9932602   0.7919122   0.2100706  )
       177           H   tau( 177) = (   0.4907726   0.5669260  -0.2303929  )
       178           H   tau( 178) = (   0.3211137   0.7299230   0.0711081  )
       179           H   tau( 179) = (   0.1231883   0.3099094   0.5367011  )
       180           H   tau( 180) = (   0.4494026   0.2811753   0.3333448  )
       181           H   tau( 181) = (   0.0587707   0.5142195   0.4759663  )
       182           H   tau( 182) = (   0.1195884   0.5866352   0.7018922  )
       183           H   tau( 183) = (   1.1303993   0.4396904   1.1531913  )
       184           H   tau( 184) = (  -0.0587392   0.9589276   0.9335119  )
       185           H   tau( 185) = (  -0.0416851   0.4243020   0.8627248  )
       186           H   tau( 186) = (   0.2299171   0.9875239   0.7353616  )
       187           H   tau( 187) = (   0.6892291  -0.3829494   1.0923715  )
       188           H   tau( 188) = (   0.3779657   0.5556534   0.2419522  )
       189           H   tau( 189) = (   0.5233491   0.0521597   0.2638887  )
       190           H   tau( 190) = (   0.7575456   0.5960412   0.7221627  )
       191           H   tau( 191) = (  -0.0736259   0.3472105   0.7020921  )
       192           H   tau( 192) = (  -0.5904707   0.1965004   0.7247693  )

     number of k points=     1  Fermi-Dirac smearing, width (Ry)=  0.0190
                       cart. coord. in units 2pi/alat
        k(    1) = (   0.0000000   0.0000000   0.0000000), wk =   2.0000000

     Dense  grid:   192726 G-vectors     FFT dimensions: (  96,  96,  96)

     Estimated max dynamical RAM per process >      51.36 MB

     Estimated total dynamical RAM >       2.81 GB

     Initial potential from superposition of free atoms

     starting charge  511.99874, renormalised to  512.00000
     Starting wfcs are  384 randomized atomic wfcs

     total cpu time spent up to now is        8.0 secs

     Self-consistent Calculation

     iteration #  1     ecut=    67.00 Ry     beta= 0.50
     Davidson diagonalization with overlap
     ethr =  1.00E-02,  avg # of iterations =  6.0

     total cpu time spent up to now is       41.1 secs

     total energy              =   -2148.79025443 Ry
     Harris-Foulkes estimate   =   -2173.94530790 Ry
     estimated scf accuracy    <      45.41299977 Ry

     iteration #  2     ecut=    67.00 Ry     beta= 0.50
     Davidson diagonalization with overlap
     ethr =  8.87E-03,  avg # of iterations =  2.0

     total cpu time spent up to now is       62.6 secs

     total energy              =   -2155.90991268 Ry
     Harris-Foulkes estimate   =   -2156.31117693 Ry
     estimated scf accuracy    <       1.47186702 Ry

     iteration #  3     ecut=    67.00 Ry     beta= 0.50
     Davidson diagonalization with overlap
     ethr =  2.87E-04,  avg # of iterations =  6.0

     total cpu time spent up to now is       84.2 secs

     total energy              =   -2155.89071120 Ry
     Harris-Foulkes estimate   =   -2155.95429431 Ry
     estimated scf accuracy    <       0.25901414 Ry

     iteration #  4     ecut=    67.00 Ry     beta= 0.50
     Davidson diagonalization with overlap
     ethr =  5.06E-05,  avg # of iterations =  2.0

     total cpu time spent up to now is      100.4 secs

     total energy              =   -2155.90892833 Ry
     Harris-Foulkes estimate   =   -2155.91101400 Ry
     estimated scf accuracy    <       0.00621261 Ry

     iteration #  5     ecut=    67.00 Ry     beta= 0.50
     Davidson diagonalization with overlap
     ethr =  1.21E-06,  avg # of iterations =  7.0

     total cpu time spent up to now is      132.2 secs

     total energy              =   -2155.90990096 Ry
     Harris-Foulkes estimate   =   -2155.90980675 Ry
     estimated scf accuracy    <       0.00045440 Ry

     iteration #  6     ecut=    67.00 Ry     beta= 0.50
     Davidson diagonalization with overlap
     ethr =  8.87E-08,  avg # of iterations =  2.0

     total cpu time spent up to now is      147.9 secs

     total energy              =   -2155.90994507 Ry
     Harris-Foulkes estimate   =   -2155.90993988 Ry
     estimated scf accuracy    <       0.00002160 Ry

     iteration #  7     ecut=    67.00 Ry     beta= 0.50
     Davidson diagonalization with overlap
     ethr =  4.22E-09,  avg # of iterations =  2.0

     total cpu time spent up to now is      166.1 secs

     total energy              =   -2155.90994904 Ry
     Harris-Foulkes estimate   =   -2155.90994784 Ry
     estimated scf accuracy    <       0.00000260 Ry

     iteration #  8     ecut=    67.00 Ry     beta= 0.50
     Davidson diagonalization with overlap
     ethr =  5.07E-10,  avg # of iterations =  2.0

     total cpu time spent up to now is      182.4 secs

     End of self-consistent calculation

          k = 0.0000 0.0000 0.0000 ( 24149 PWs)   bands (ev):

   -22.1219 -21.8367 -21.5918 -21.4215 -21.2498 -21.1376 -21.0544 -20.9423
   -20.9248 -20.7844 -20.6767 -20.6411 -20.6016 -20.4725 -20.4491 -20.2958
   -20.2599 -20.2284 -20.1694 -19.9710 -19.9553 -19.8770 -19.8117 -19.7989
   -19.7070 -19.6050 -19.4900 -19.4421 -19.3663 -19.2973 -19.2685 -19.1993
   -19.1452 -19.0247 -18.9798 -18.9553 -18.8701 -18.7528 -18.6897 -18.6266
   -18.5859 -18.4127 -18.3859 -18.3197 -18.2041 -18.1238 -18.1097 -18.0080
   -17.9805 -17.9108 -17.8185 -17.7037 -17.6838 -17.5914 -17.5314 -17.4448
   -17.3706 -17.1936 -17.0846 -17.0001 -16.6384 -16.5256 -16.3814 -16.3384
    -8.8446  -8.7636  -8.4710  -8.3972  -8.3479  -8.2651  -8.1767  -8.0952
    -8.0303  -7.9680  -7.9073  -7.7989  -7.7875  -7.7130  -7.6687  -7.6193
    -7.6068  -7.5206  -7.5043  -7.4608  -7.3966  -7.3319  -7.2935  -7.2218
    -7.1704  -7.1173  -7.0674  -7.0195  -6.9736  -6.8856  -6.8310  -6.8104
    -6.7462  -6.7034  -6.6850  -6.6255  -6.5852  -6.5708  -6.5411  -6.4378
    -6.4153  -6.3501  -6.2849  -6.2551  -6.1335  -6.1143  -6.0298  -6.0186
    -5.9554  -5.8897  -5.8346  -5.8274  -5.7480  -5.7145  -5.6671  -5.6293
    -5.5814  -5.5474  -5.4511  -5.3870  -5.3107  -5.0872  -5.0271  -4.9457
    -2.6857  -2.4915  -2.4254  -2.3516  -2.2822  -2.1377  -2.1255  -2.0050
    -1.9450  -1.8682  -1.8505  -1.7531  -1.6810  -1.5898  -1.5010  -1.4071
    -1.3296  -1.2734  -1.2110  -1.1133  -1.0890  -0.9927  -0.9769  -0.7818
    -0.7422  -0.6508  -0.5784  -0.4664  -0.4264  -0.3642  -0.3242  -0.2744
    -0.1425  -0.0826  -0.0664  -0.0076   0.0523   0.1107   0.1652   0.3177
     0.3523   0.3858   0.4608   0.5105   0.5212   0.5991   0.6352   0.7278
     0.7856   0.8474   0.9088   0.9290   1.0355   1.1053   1.1372   1.2237
     1.2477   1.2882   1.3649   1.3816   1.4205   1.4852   1.5123   1.5269
     1.6165   1.6561   1.6774   1.7181   1.7499   1.7729   1.8005   1.9023
     1.9497   1.9860   2.0160   2.0355   2.0878   2.1377   2.1904   2.2367
     2.2518   2.2838   2.3506   2.3973   2.4012   2.4380   2.4854   2.5014
     2.5649   2.5857   2.6401   2.6638   2.7197   2.7746   2.8072   2.8545
     2.9332   2.9639   2.9751   3.0158   3.0633   3.0980   3.1263   3.1880
     3.2115   3.2263   3.2863   3.3249   3.3574   3.4056   3.4376   3.4659
     3.4749   3.5601   3.6605   3.6780   3.7612   3.7674   3.7989   3.8668
     3.9130   3.9443   4.0638   4.1727   4.2646   4.3157   4.4993   4.6960
    11.1545  11.9163  12.3535  12.6872  12.9708  13.1873  13.3351  13.5146
    13.5838  13.7271  13.8076  13.8730  14.1129  14.2527  14.3809  14.5544
    14.6459  14.7282  14.9698  15.1586  15.2204  15.3221  15.4319  15.6253
    15.7458  15.7908  15.8307  15.9393  16.0358  16.1296  16.2195  16.2281
    16.3459  16.3844

     the Fermi energy is     8.0330 ev

!    total energy              =   -2155.90994933 Ry
     Harris-Foulkes estimate   =   -2155.90994929 Ry
     estimated scf accuracy    <       0.00000007 Ry

     convergence has been achieved in   8 iterations

     Forces acting on atoms (cartesian axes, Ry/au):

     atom    1 type  1   force =    -0.37202202    1.82672582   -0.44665103
     atom    2 type  1   force =     0.74275047    0.71201836    1.36236986
     atom    3 type  1   force =    -1.05334684    0.63545047    0.40217887
     atom    4 type  1   force =     0.10000869    1.65864588   -0.01316012
     atom    5 type  1   force =     0.07881384    0.80246414   -1.27078473
     atom    6 type  1   force =     0.49216097    1.16409132    0.12970767
     atom    7 type  1   force =    -0.54225428   -0.23675512   -1.00209524
     atom    8 type  1   force =     0.24934755   -0.09898904    1.30087185
     atom    9 type  1   force =    -0.39262550    0.33333283   -1.21516158
     atom   10 type  1   force =    -0.32028378    1.14234079    1.22335704
     atom   11 type  1   force =    -0.47362662    0.46271450   -0.93194286
     atom   12 type  1   force =    -0.93384958    0.21922457    0.81880823
     atom   13 type  1   force =    -1.18600269    0.43584705    0.36907640
     atom   14 type  1   force =    -1.29983988    0.05194615    0.66135943
     atom   15 type  1   force =    -1.35282516    0.61566464   -0.36406766
     atom   16 type  1   force =    -0.85880653    0.79668692    0.86569308
     atom   17 type  1   force =     0.55190720    0.74573180   -0.57409315
     atom   18 type  1   force =    -0.72248088   -0.14040627    1.13563362
     atom   19 type  1   force =    -0.83029360    0.89959050    1.04166070
     atom   20 type  1   force =    -0.63436009    1.16221065    0.28770010
     atom   21 type  1   force =     0.76259233   -0.42273829   -0.68352808
     atom   22 type  1   force =     0.86496269    0.30615069   -1.92909916
     atom   23 type  1   force =    -0.30193023   -0.63545301    1.46605043
     atom   24 type  1   force =     0.27150699    0.47594644   -1.05152868
     atom   25 type  1   force =    -0.49852225   -0.09800945   -1.22637328
     atom   26 type  1   force =     0.21540796    0.97824572    1.04546107
     atom   27 type  1   force =    -1.07221572    0.50666034    0.11976137
     atom   28 type  1   force =    -0.86914040    0.52661710   -1.38158436
     atom   29 type  1   force =     0.85628153    1.33515759   -0.30761377
     atom   30 type  1   force =     1.12634903   -0.38255506   -0.37816538
     atom   31 type  1   force =     0.74579017    0.32638260    1.33397621
     atom   32 type  1   force =    -0.83722470    1.08164805   -0.64103435
     atom   33 type  1   force =     0.53163296    1.19310215    0.89824170
     atom   34 type  1   force =     1.11901820   -0.64187621    0.22999841
     atom   35 type  1   force =    -0.23432025    0.83053791    0.91961747
     atom   36 type  1   force =     0.53691201    1.06524942    0.63544443
     atom   37 type  1   force =     1.01813018    1.49803004    0.22080656
     atom   38 type  1   force =     1.05493650   -0.33658197   -0.10951171
     atom   39 type  1   force =    -0.13463766    0.64363383   -1.06673716
     atom   40 type  1   force =     1.15611303    0.61453644   -0.23104218
     atom   41 type  1   force =    -1.64021970    0.36213627    0.27577871
     atom   42 type  1   force =    -1.06009029   -0.36404476    0.09441502
     atom   43 type  1   force =    -0.71283869    1.42280580   -0.50992332
     atom   44 type  1   force =     0.08937217    0.95648662   -0.96319753
     atom   45 type  1   force =    -1.72451599   -0.29349793   -0.20184204
     atom   46 type  1   force =     0.89476684    1.13819485   -0.36025382
     atom   47 type  1   force =    -0.81712325    1.09527459   -0.35072727
     atom   48 type  1   force =    -1.30744326   -0.20168129    1.28110593
     atom   49 type  1   force =    -1.50911472    0.36117913   -0.63607583
     atom   50 type  1   force =     0.67183369    1.21299121   -0.43519154
     atom   51 type  1   force =    -0.41027288    1.29828152   -0.54034419
     atom   52 type  1   force =    -0.47714949   -0.71754536   -0.78341513
     atom   53 type  1   force =    -0.93399282    0.06872630   -0.99089493
     atom   54 type  1   force =    -0.41405135   -0.10061217   -1.61807580
     atom   55 type  1   force =     0.88142764    1.12405026   -0.30237114
     atom   56 type  1   force =     1.48565795    0.07711750    0.66005517
     atom   57 type  1   force =    -0.94530020    0.83202977    0.44008141
     atom   58 type  1   force =     1.33660222   -0.46341825   -0.32324997
     atom   59 type  1   force =    -0.96117581   -0.03457996   -0.51380287
     atom   60 type  1   force =     0.50581505   -0.48296262    1.74329065
     atom   61 type  1   force =    -1.05803544   -0.59017325   -0.28927316
     atom   62 type  1   force =     0.56800542    1.08028170   -0.17516697
     atom   63 type  1   force =     0.07638485   -0.09696719    0.95806604
     atom   64 type  1   force =     0.21206442    0.99314332    0.26447890
     atom   65 type  2   force =    -0.04286296   -0.47206708    1.41129697
     atom   66 type  2   force =     0.17102449   -0.12467464   -1.70894815
     atom   67 type  2   force =    -0.21450874   -0.87198948   -0.09128650
     atom   68 type  2   force =    -1.08088362   -0.53028107   -0.57966613
     atom   69 type  2   force =     0.43829983   -1.29229047    0.17906107
     atom   70 type  2   force =    -0.56437448   -0.31595061   -0.67206287
     atom   71 type  2   force =     1.27553112   -0.04114979    0.52435244
     atom   72 type  2   force =     0.84032114    0.10544762   -0.93703085
     atom   73 type  2   force =     1.13678235    0.21197424    0.37224030
     atom   74 type  2   force =    -0.77032316   -1.26080854   -0.14728722
     atom   75 type  2   force =     0.27551550   -1.03919502    0.15807513
     atom   76 type  2   force =    -0.18065970   -0.45714892   -1.14624500
     atom   77 type  2   force =     1.09141527    0.66458451    0.44689209
     atom   78 type  2   force =     1.13977719   -0.86254128    0.34267184
     atom   79 type  2   force =     0.79063892    0.50003791    0.25902991
     atom   80 type  2   force =    -0.05451788   -0.92152189   -0.86333026
     atom   81 type  2   force =     0.32396182   -1.05709345    0.16898655
     atom   82 type  2   force =     0.41767062    1.06898840   -0.68858621
     atom   83 type  2   force =     1.36825045    0.14960446   -0.70742156
     atom   84 type  2   force =     1.35973599   -0.28731233   -0.01048526
     atom   85 type  2   force =    -0.44952940    0.94227658    0.08863766
     atom   86 type  2   force =    -1.46809338    0.13129940    0.99473834
     atom   87 type  2   force =     0.76067402    0.39451308   -0.03189405
     atom   88 type  2   force =    -1.03781002   -0.40505033    0.34333277
     atom   89 type  2   force =     0.54945074    0.79146275    0.84756853
     atom   90 type  2   force =     0.97397260   -0.45042639   -0.45372470
     atom   91 type  2   force =    -0.01210031   -0.84236739    0.17367730
     atom   92 type  2   force =     0.33715074    0.97104859    1.03288437
     atom   93 type  2   force =     0.33488694   -1.37769963   -0.12778018
     atom   94 type  2   force =    -0.41091498    0.92326093   -0.21254695
     atom   95 type  2   force =    -0.76406419    0.80396980   -1.01934700
     atom   96 type  2   force =     1.48478794   -0.13782196    0.00450318
     atom   97 type  2   force =    -0.21816893   -0.01230452   -1.31796366
     atom   98 type  2   force =    -0.81707812   -0.39838971   -0.50155759
     atom   99 type  2   force =     0.53485403   -1.11769302    0.32013961
     atom  100 type  2   force =     0.71354027   -0.68411846   -0.59698049
     atom  101 type  2   force =    -1.22164086   -0.45658298   -1.22027834
     atom  102 type  2   force =    -0.94721624    0.41365748   -0.72698590
     atom  103 type  2   force =     0.82081757   -0.72183345    0.13816996
     atom  104 type  2   force =    -0.64951366    0.18788266    0.81810669
     atom  105 type  2   force =     0.57117907   -1.15473826   -0.13796239
     atom  106 type  2   force =     1.10654049   -0.15028743   -0.96014884
     atom  107 type  2   force =    -0.64254032   -0.53069164    1.30331895
     atom  108 type  2   force =    -0.75948591   -0.87275712    0.27346318
     atom  109 type  2   force =     0.64849484    0.08494457   -1.07778754
     atom  110 type  2   force =     0.13979133   -0.38811773    0.94112064
     atom  111 type  2   force =     0.91225865   -0.25369898    0.85056552
     atom  112 type  2   force =     1.12483409    0.23808466    0.31883079
     atom  113 type  2   force =     0.67696588    0.20545394    1.50032740
     atom  114 type  2   force =    -1.13072675   -0.35069424    0.04312907
     atom  115 type  2   force =     0.20847650   -0.42860409   -0.54185416
     atom  116 type  2   force =    -0.18946671    1.03225138   -0.07545346
     atom  117 type  2   force =     0.05163500    1.14002585    0.61435669
     atom  118 type  2   force =     0.78376949   -0.75158875    1.07714760
     atom  119 type  2   force =    -0.91860629   -0.30383324    0.92730460
     atom  120 type  2   force =    -1.04044200   -0.15122343    0.75017175
     atom  121 type  2   force =     0.77711908   -0.46665947    0.75350537
     atom  122 type  2   force =    -0.78086385    0.15825312   -0.95156111
     atom  123 type  2   force =     0.09973235    0.58775131    0.39985021
     atom  124 type  2   force =    -1.33866172   -0.16402081   -0.47514114
     atom  125 type  2   force =    -0.11445794    0.89766045    0.57372197
     atom  126 type  2   force =     0.50028746   -1.02462025    0.29868751
     atom  127 type  2   force =     0.56338089    0.46269906   -0.70910269
     atom  128 type  2   force =    -0.38012396   -0.52899605    0.62075246
     atom  129 type  2   force =     0.31023850   -1.16908347   -0.89009468
     atom  130 type  2   force =    -0.96214549   -0.66245179    0.44696313
     atom  131 type  2   force =     1.32961784    0.39789771   -0.62736757
     atom  132 type  2   force =     0.66636845   -0.92160784    0.71903399
     atom  133 type  2   force =    -0.42173484    0.60136778    1.14962793
     atom  134 type  2   force =    -0.03628087   -0.85259908    0.92391648
     atom  135 type  2   force =    -0.56712610    0.24116814    0.68854290
     atom  136 type  2   force =    -0.89610877    0.16866122   -0.37241645
     atom  137 type  2   force =    -0.55109251   -0.59777798    0.87378449
     atom  138 type  2   force =     1.00982196    0.13121672   -1.09589228
     atom  139 type  2   force =    -0.12702905    0.41527123    0.85708671
     atom  140 type  2   force =     0.88088775    0.36465656    0.01846777
     atom  141 type  2   force =     0.31861543   -0.91871868   -0.84846990
     atom  142 type  2   force =     0.27342139    0.54380425   -0.82588025
     atom  143 type  2   force =     0.28732964   -1.37103332    0.16642073
     atom  144 type  2   force =     0.84159885    0.31432572    0.00606426
     atom  145 type  2   force =    -0.76116178    0.16438741    0.64214975
     atom  146 type  2   force =     0.36631187   -0.72807510   -0.45431751
     atom  147 type  2   force =    -0.76267560   -1.25667409   -0.56609109
     atom  148 type  2   force =    -0.54391725   -0.91000511   -0.07825321
     atom  149 type  2   force =    -0.37252536   -0.59300232    0.59524516
     atom  150 type  2   force =     0.87722029   -0.32411695    0.66947658
     atom  151 type  2   force =    -0.70348095   -0.01737943   -1.52140738
     atom  152 type  2   force =     0.68032676   -0.12129686    0.76030456
     atom  153 type  2   force =    -0.23971028   -0.51907234    0.34035502
     atom  154 type  2   force =    -1.16312792   -0.57325675   -0.54284778
     atom  155 type  2   force =     1.03074458    0.27833892   -0.35013938
     atom  156 type  2   force =     0.72626400   -1.44413862    0.28998054
     atom  157 type  2   force =    -1.02786186    0.03926222    0.41097979
     atom  158 type  2   force =    -0.74089872   -0.68163860    0.62106490
     atom  159 type  2   force =    -0.01134112   -0.93640636   -0.31172517
     atom  160 type  2   force =    -0.46277251   -1.04543926    0.72387094
     atom  161 type  2   force =    -0.20301475   -1.12560819    0.40413201
     atom  162 type  2   force =    -0.35249921    0.97651309    0.58707520
     atom  163 type  2   force =    -0.23466656    0.07452709   -1.10513943
     atom  164 type  2   force =    -1.22752373   -0.51925856   -0.13026818
     atom  165 type  2   force =     0.05724590   -0.79080956    0.86094136
     atom  166 type  2   force =    -0.19990699   -0.01432906    0.83720715
     atom  167 type  2   force =    -0.63104802    0.05440177    1.13289368
     atom  168 type  2   force =    -0.56214995   -0.76249643   -0.66836428
     atom  169 type  2   force =     0.70267884    0.91302818   -0.29097620
     atom  170 type  2   force =     0.32685404    0.61813010    0.61587378
     atom  171 type  2   force =     1.12240551   -1.01296504   -0.65289959
     atom  172 type  2   force =     0.89658934   -0.31925186    0.32898028
     atom  173 type  2   force =     1.00932519    0.22736804    1.10551236
     atom  174 type  2   force =    -0.93552554   -0.74700581   -0.57506106
     atom  175 type  2   force =    -0.06616001   -0.65850247   -0.43298365
     atom  176 type  2   force =    -0.07970373    0.01716426   -1.49725197
     atom  177 type  2   force =     0.86647992   -0.43456735   -0.69884930
     atom  178 type  2   force =     0.70317029   -0.96740565    0.26529321
     atom  179 type  2   force =     0.19059414   -0.64706627    1.01360058
     atom  180 type  2   force =     0.72882103   -0.18708949    0.54706354
     atom  181 type  2   force =     0.98985095   -1.10245220    0.57027209
     atom  182 type  2   force =    -0.15659576    0.96290420    0.39761524
     atom  183 type  2   force =     0.22350369   -0.86124409   -0.64093313
     atom  184 type  2   force =    -0.37314332   -0.13024149   -1.46653527
     atom  185 type  2   force =     0.00880252   -0.64559455   -0.81985246
     atom  186 type  2   force =    -0.66237024    0.21822166    1.28891123
     atom  187 type  2   force =     1.01607274   -0.58950385   -0.09648645
     atom  188 type  2   force =     0.75421010    0.77732272   -1.01788135
     atom  189 type  2   force =     1.04766942   -0.03063163   -0.30546405
     atom  190 type  2   force =    -1.03672491   -0.24975395   -0.23540541
     atom  191 type  2   force =    -0.81854778   -0.70469307   -0.57990560
     atom  192 type  2   force =     0.23902191   -0.49441968   -0.70681184

     Total force =    18.278374     Total SCF correction =     0.000450


     Computing stress (Cartesian axis) and pressure

          total   stress  (Ry/bohr**3)                   (kbar)     P= 2676.88
   0.01852119   0.00078593  -0.00008240       2724.56    115.61    -12.12
   0.00078593   0.01767543   0.00053587        115.61   2600.15     78.83
  -0.00008240   0.00053587   0.01839447        -12.12     78.83   2705.92


     Molecular Dynamics Calculation

     Starting temperature  =  3000.00 K

     temperature is controlled by Andersen thermostat
     Collision frequency = 0.0333/timestep
     mass O                =    16.00
     mass H                =     2.01
     Time step             =     2.07 a.u.,  0.1000 femto-seconds

     Entering Dynamics:    iteration =     1
                           time      =   0.0001 pico-seconds


     Andersen thermostat:    4 collisions

ATOMIC_POSITIONS (crystal)
O        0.625631184   0.001037116   0.736158228
O       -0.124819952   1.031396220   0.688653848
O        0.025923260   0.662297688   0.929263828
O        1.127613899   1.096424617   0.077379313
O        0.456667999   0.780846558   0.684277921
O        0.092835960   0.723880917   1.107591746
O        0.906018811   0.318011622   0.371648395
O        1.137885565   0.733120424   0.751330818
O        1.157258250   0.217124289   0.629699270
O        0.504241156   0.530569023   0.520639453
O        0.400198252   0.739547764   0.472963702
O       -0.065812299  -0.063357045   0.499464667
O        0.268546170  -0.032015984   0.168668260
O        1.195414028   0.873471829   0.343540893
O        0.670570316   0.063351807   0.236887432
O        0.411623938   0.618093772   0.115330282
O        0.779284554   0.252507706   0.672653764
O        0.132124911   1.028032607   0.488257252
O        0.546252034   0.263579432   1.094829642
O       -0.229496346  -0.260857517   0.387287922
O        0.498897693   0.856620366   0.331726675
O        0.670530406   0.834354378   0.218526027
O        0.203387285   0.209662101   0.326039407
O       -0.396676125   0.329814968   0.810459426
O        0.913163137   0.518863849   1.267655894
O        0.648615288   0.360613985   0.247639577
O        0.140141218   0.335513833   0.030875746
O        0.749364626   0.295479404  -0.017826936
O        0.298730706   1.110672895  -0.054840904
O       -0.032544984   0.754478180   0.599619397
O        0.656250556   0.546040513   0.348522047
O        0.700183161   1.099538066   0.466384106
O        0.626192360   0.527021885   0.707146573
O        1.051491939   1.136283926  -0.201613249
O        0.366022494   0.433998230   1.021761171
O       -0.335237603   0.875913495  -0.439266790
O        0.726001747   0.358883483   0.502759086
O        0.363070136   0.347013089   0.550058689
O        0.536254372   1.239087839   0.419432109
O       -0.220768903   1.076508961   0.031492810
O        0.294134189   0.425554978   0.816749732
O        0.815300903   0.197999735   0.225403678
O        0.662922086  -0.098585520  -0.062850581
O        0.426087170   0.125109964   0.620874955
O        0.788053357   0.496484306   0.096753311
O        0.314385094  -0.116173361  -0.143279749
O        0.844449710  -0.209556272   0.871283178
O        0.993616011   0.791524241   0.285292575
O        0.432100972   0.595927314  -0.187166153
O        0.278185710   0.792573700   0.054517493
O        1.108992854   0.354622393   1.475248285
O        0.388591289   0.298896457   1.284258654
O        0.012668690   0.566051460   0.449049942
O        0.129349604   0.515167744   0.668192897
O        1.115222436   0.503023645   1.198623621
O       -0.038413446   0.965807441   1.005575124
O       -0.046141955   0.471653670   0.925387617
O        0.264835304   0.976082260   0.669386806
O        0.620747178  -0.344918012   1.097151149
O        0.342116484   0.517363382   0.295387258
O        0.446908694   0.053670984   0.284311223
O        0.831999495   0.618479475   0.738268079
O       -0.022025476   0.391490110  -0.258627221
O       -0.608668613   0.243905562   0.787320682
H        0.626140762  -0.026362754   0.807286176
H       -0.118657597   1.025511875   0.616302970
H        0.006467358   0.585259374   0.924803281
H        1.066110758   1.062676739   0.043863091
H        0.480100243   0.709583092   0.695220633
H        1.048589551   0.694453756   1.047668495
H        0.975362924   0.316162413   0.402741879
H        1.189059365   0.739009803   0.691999340
H        1.228877414   0.230823736   0.654820559
H        0.466513449   0.465945482   0.511044887
H        0.423891495   0.664211951   0.487617520
H        0.925297116  -0.091890634   0.425798490
H        0.331733047   0.003313414   0.194052250
H        1.256045625   0.830637817   0.358039204
H        0.736507727   1.105355894   0.252014566
H        0.409045780   0.563647021   0.061858548
H        0.800070062   0.177888474   0.686169797
H        1.158607717   1.087353554   0.445357502
H        0.612692850   0.269625697   1.060777164
H       -0.154233633  -0.278005643   0.386031566
H        0.467148269   0.928337558   0.335932399
H        0.611713208   0.839496990   0.259844486
H        0.275196242   0.248886429   0.318907178
H       -0.465239504   0.301976210   0.835392210
H        0.946639386   0.562330060   0.321794943
H        0.713549126   0.329288628   0.217678343
H        0.145266801   0.253915381   0.045419185
H        0.767502073   0.343689015   0.037780859
H        0.312644060   1.036088920  -0.060107064
H       -0.063153777   0.825361421   0.582024058
H        0.616597161   0.585087415   0.296981401
H        0.775397141   1.090166810   0.468465111
H        0.611794878   0.522824396   0.631864340
H        0.986992108   1.109278252   0.759614810
H        0.397141395   0.364765292   1.038337779
H        0.710399968   0.826979127  -0.480551584
H        0.675635730   0.338928670   0.453330993
H        0.304726084   0.371277436   0.504314957
H        0.592625990   1.186704697   0.435179395
H       -0.268759238   1.090087774   0.093647877
H        0.329698964   0.359385620   0.808339676
H        0.873673969   0.193076412   0.176522735
H        0.631847107  -0.124322902   0.000794681
H        0.377621508   0.066859820   0.642726857
H        0.831955640   0.502269346   0.032026162
H        0.321657474  -0.148070409  -0.070435674
H        0.899773662  -0.229906618   0.921557814
H        1.067093040   0.807827891   0.302749598
H        0.464610734   0.604362184  -0.120624273
H        0.205399959   0.767068984   0.058771803
H        1.134920018   0.300239498   1.416051496
H        0.372762672   0.377291786   0.279643734
H        0.014717619   0.634194378   0.485804270
H        0.167294424   0.480775912   0.723563766
H        1.061746627   0.485902232   1.250289657
H       -0.102426812   0.956779284   1.047514387
H        1.007621980   0.438579368   0.973450307
H        0.215460894   0.985173544   0.610344442
H        0.634543759  -0.279299895   1.147006988
H        0.272617550   0.507804541   0.267781513
H        0.442076766   0.120832924   0.326762064
H        0.862932526   0.548812026   0.758078256
H        0.021956195   0.427688019  -0.314070761
H        0.357165955   0.193874672   0.842449832
H        0.641202551  -0.057540459   0.693309430
H       -0.185086299   0.991101725   0.715583420
H        0.090714918   1.681402175   0.897990431
H        1.166493663   1.043548437   0.115914372
H        0.432520368   0.814025055   0.748141686
H        1.087683110   0.670442136   1.163540394
H        0.857642888   0.339601023   0.433884395
H        1.065263268   0.745004525   0.718485392
H        1.122446171   0.179074450   0.687696185
H        0.554177981   0.535420060   0.464735742
H        0.392339998   0.769494247   0.547857034
H        0.009145922   0.964738809   0.497246776
H        0.287397713  -0.086991155   0.118057907
H        1.221712958   0.913666707   0.279597799
H        0.688924782  -0.010288209   0.245639833
H        0.488304269   0.642829889   0.112821826
H        0.719982154   0.262893355   0.725691708
H        0.165663124   0.967925793   0.445264161
H        0.512040811   0.203054325   1.065987477
H       -0.269932655  -0.329463550   0.379428119
H        0.465607447   0.807475179   0.385323108
H        0.726918585   0.810514740   0.268187942
H        0.173541568   0.211368490   0.258891134
H       -0.345342596   0.317440122   0.871498200
H        0.887625033   0.452128080   1.313365118
H        0.588510526   0.328969102   0.215319828
H        0.213395180   0.351289167   0.006719966
H        0.782383959   0.230079501  -0.001666531
H        0.225765533   1.107994196  -0.024405558
H       -0.082135306   0.710835287   1.642231754
H        0.652948000   0.471430624   0.320072003
H        0.677155208   1.039033375   0.508768825
H        0.611347313   0.454453677   0.730502775
H        1.024245612   1.200461847   0.835715215
H        0.350880156   0.436945135   0.945951175
H       -0.404751500  -0.156319501   0.551007584
H        0.729734771   0.307270874   0.560151038
H        0.344609594   0.343752204   0.629905660
H        0.501807109   1.240265913   0.488926855
H       -0.261191347   1.024716697  -0.010996384
H        0.343315253   0.483561524   0.799279103
H        0.847615857   0.252532753   0.275411741
H        0.713673088  -0.143575185  -0.092001731
H        0.496650678   0.096808718   0.650055417
H        0.840184897   0.507292735   0.149955576
H        1.259906244  -0.160547765  -0.174814522
H        0.842313568  -0.280080334   0.828700369
H        0.993660592   0.792196983   0.209688891
H        0.490581583   0.566443256  -0.230155632
H        0.321859279   0.729636561   0.071149851
H        0.122959241   0.309955437   0.536534772
H        0.450562493   0.281392058   0.333079621
H        0.058253742   0.514146562   0.476140479
H        0.119044626   0.586721901   0.701998308
H        1.130860124   0.439683836   1.153146841
H       -0.058536564   0.959030346   0.932734610
H       -0.041327531   0.424497557   0.862068433
H        0.230185548   0.987507683   0.735149867
H        0.689003173  -0.382824224   1.091934000
H        0.378307607   0.555500704   0.241380935
H        0.522622133   0.052206437   0.263769218
H        0.757536861   0.596014213   0.722715092
H       -0.073252533   0.347303001   0.701745375
H       -0.590684850   0.196292055   0.724501344


     kinetic energy (Ekin) =     5.51588864 Ry
     temperature           =  3039.75181837 K 
     Ekin + Etot (const)   = -2150.39406069 Ry
     Ions kinetic stress =     103.98 (kbar)
                               114.87     -0.74      5.84
                                -0.74    112.32      3.96
                                 5.84      3.96     84.75



     Linear momentum :   -0.0000000000   -0.0000000000   -0.0000000000

     Writing output data file water3000K.save/
     Message from routine punch:
     wavefunctions written to file
     NEW-OLD atomic charge density approx. for the potential

     total cpu time spent up to now is      188.1 secs

     Self-consistent Calculation

     iteration #  1     ecut=    67.00 Ry     beta= 0.50
     Davidson diagonalization with overlap
     ethr =  1.00E-06,  avg # of iterations =  4.0

     total cpu time spent up to now is      223.6 secs

     total energy              =   -2156.14372713 Ry
     Harris-Foulkes estimate   =   -2156.14596768 Ry
     estimated scf accuracy    <       0.00487474 Ry

     iteration #  2     ecut=    67.00 Ry     beta= 0.50
     Davidson diagonalization with overlap
     ethr =  9.52E-07,  avg # of iterations =  2.0

     total cpu time spent up to now is      242.2 secs

     total energy              =   -2156.14432501 Ry
     Harris-Foulkes estimate   =   -2156.14442081 Ry
     estimated scf accuracy    <       0.00044249 Ry

     iteration #  3     ecut=    67.00 Ry     beta= 0.50
     Davidson diagonalization with overlap
     ethr =  8.64E-08,  avg # of iterations =  2.0

     total cpu time spent up to now is      257.9 secs

     total energy              =   -2156.14435506 Ry
     Harris-Foulkes estimate   =   -2156.14435637 Ry
     estimated scf accuracy    <       0.00006506 Ry

     iteration #  4     ecut=    67.00 Ry     beta= 0.50
     Davidson diagonalization with overlap

     Program PWSCF v.6.4.1 starts on 18Aug2020 at 22:24:32 

     This program is part of the open-source Quantum ESPRESSO suite
     for quantum simulation of materials; please cite
         "P. Giannozzi et al., J. Phys.:Condens. Matter 21 395502 (2009);
         "P. Giannozzi et al., J. Phys.:Condens. Matter 29 465901 (2017);
          URL http://www.quantum-espresso.org", 
     in publications or presentations arising from this work. More details at
     http://www.quantum-espresso.org/quote

     Parallel version (MPI), running on    84 processors

     MPI processes distributed on     3 nodes
     R & G space division:  proc/nbgrp/npool/nimage =      84
     Reading input from 3000K_2.5gcm3.in

     Current dimensions of program PWSCF are:
     Max number of different atomic species (ntypx) = 10
     Max number of k-points (npk) =  40000
     Max angular momentum in pseudopotentials (lmaxx) =  3

     IMPORTANT: XC functional enforced from input :
     Exchange-correlation      = PBE ( 1  4  3  4 0 0)
     Using LIBXC version       =    4   3   4
     Any further DFT definition will be discarded
     Please, verify this is what you really want


     gamma-point specific algorithms are used

     Subspace diagonalization in iterative solution of the eigenvalue problem:
     a serial algorithm will be used


     Parallelization info
     --------------------
     sticks:   dense  smooth     PW     G-vecs:    dense   smooth      PW
     Min          76      76     18                 4580     4580     566
     Max          78      78     20                 4596     4596     584
     Sum        6393    6393   1605               385451   385451   48297


     Title: 
     water_SCAN_2000K                                                           


     bravais-lattice index     =            1
     lattice parameter (alat)  =      17.3275  a.u.
     unit-cell volume          =    5202.4238 (a.u.)^3
     number of atoms/cell      =          192
     number of atomic types    =            2
     number of electrons       =       512.00
     number of Kohn-Sham states=          290
     kinetic-energy cutoff     =      67.0000  Ry
     charge density cutoff     =     268.0000  Ry
     convergence threshold     =      1.0E-06
     mixing beta               =       0.5000
     number of iterations used =            8  plain     mixing
     Exchange-correlation      = PBE ( 1  4  3  4 0 0)
     Using LIBXC version       =    4   3   4
     nstep                     =        20000


     celldm(1)=  17.327473  celldm(2)=   0.000000  celldm(3)=   0.000000
     celldm(4)=   0.000000  celldm(5)=   0.000000  celldm(6)=   0.000000

     crystal axes: (cart. coord. in units of alat)
               a(1) = (   1.000000   0.000000   0.000000 )  
               a(2) = (   0.000000   1.000000   0.000000 )  
               a(3) = (   0.000000   0.000000   1.000000 )  

     reciprocal axes: (cart. coord. in units 2 pi/alat)
               b(1) = (  1.000000  0.000000  0.000000 )  
               b(2) = (  0.000000  1.000000  0.000000 )  
               b(3) = (  0.000000  0.000000  1.000000 )  


     PseudoPot. # 1 for O  read from file:
     ./Pseudo_Potentials/O_HSCV_PBE-1.0.UPF
     MD5 check sum: a5a52169c71ea0405bad903be39234ff
     Pseudo is Norm-conserving, Zval =  6.0
     Generated by new atomic code, or converted to UPF format
     Using radial grid of 2208 points,  1 beta functions with: 
                l(1) =   0

     PseudoPot. # 2 for H  read from file:
     ./Pseudo_Potentials/H_HSCV_PBE-1.0.UPF
     MD5 check sum: 31544ba92ee05a06ae1d082ec2460d19
     Pseudo is Norm-conserving, Zval =  1.0
     Generated by new atomic code, or converted to UPF format
     Using radial grid of 2537 points,  0 beta functions with: 

     atomic species   valence    mass     pseudopotential
        O              6.00    15.99940     O ( 1.00)
        H              1.00     2.01410     H ( 1.00)

     No symmetry found



   Cartesian axes

     site n.     atom                  positions (alat units)
         1           O   tau(   1) = (   0.6254879   0.0011099   0.7362419  )
         2           O   tau(   2) = (  -0.1246277   1.0315942   0.6889017  )
         3           O   tau(   3) = (   0.0256527   0.6624952   0.9291619  )
         4           O   tau(   4) = (   1.1277034   1.0961432   0.0772122  )
         5           O   tau(   5) = (   0.4565378   0.7808692   0.6842284  )
[...]
     atom   69 type  2   force =     0.02218595   -0.00377396   -0.01228748
     atom   70 type  2   force =    -0.20105431   -0.12142814   -0.14814312
     atom   71 type  2   force =     0.13585844    0.00048620    0.06467283
     atom   72 type  2   force =     0.36755244    0.04758471   -0.50209183
     atom   73 type  2   force =    -0.06307251   -0.06139235    0.02073523
     atom   74 type  2   force =    -0.02339562   -0.00945371    0.02657347
     atom   75 type  2   force =     0.09257079   -0.44431770    0.09670170
     atom   76 type  2   force =    -0.01184638   -0.04576110   -0.11272089
     atom   77 type  2   force =     0.66441279    0.46478323    0.30969452
     atom   78 type  2   force =    -0.04225735   -0.03790249    0.03075974
     atom   79 type  2   force =     0.11042210    0.01093589    0.16178675
     atom   80 type  2   force =     0.01820385   -0.00699214    0.04945037
     atom   81 type  2   force =     0.01449033   -0.14426136    0.02408252
     atom   82 type  2   force =    -0.00921017    0.12089091   -0.01326210
     atom   83 type  2   force =     0.07312926   -0.01989950   -0.07266843
     atom   84 type  2   force =     0.02691657    0.01161124   -0.00770838
     atom   85 type  2   force =    -0.05748939    0.09359217    0.08611412
     atom   86 type  2   force =    -0.44207803    0.04324016    0.29809111
     atom   87 type  2   force =     0.14656953    0.10726449    0.02123541
     atom   88 type  2   force =    -0.62005320   -0.32636264    0.19796871
     atom   89 type  2   force =     0.16317866    0.31965211    0.29922978
     atom   90 type  2   force =     0.09438876   -0.03409044   -0.04146783
     atom   91 type  2   force =    -0.04826839   -0.06782386    0.03639836
     atom   92 type  2   force =     0.14128446    0.43510303    0.42915300
     atom   93 type  2   force =     0.06411630   -0.11872515   -0.06211320
     atom   94 type  2   force =    -0.09821867    0.08511802   -0.00516618
     atom   95 type  2   force =     0.01591916   -0.00047749    0.02981736
     atom   96 type  2   force =     0.09362875    0.01883232   -0.04050739
     atom   97 type  2   force =    -0.02008537   -0.01968010   -0.13263540
     atom   98 type  2   force =    -0.15283739   -0.07448262   -0.06444818
     atom   99 type  2   force =     0.07804463   -0.06363663    0.04894267
     atom  100 type  2   force =     0.11232191   -0.05437662   -0.07942903
     atom  101 type  2   force =    -0.03410675   -0.00915920   -0.02818409
     atom  102 type  2   force =    -0.08325158    0.04500226   -0.04193008
     atom  103 type  2   force =     0.19566107   -0.14547014   -0.00308931
     atom  104 type  2   force =    -0.29485119    0.03739689    0.28428214
     atom  105 type  2   force =    -0.01046747    0.03458532    0.01567552
     atom  106 type  2   force =     0.00772868   -0.03529578   -0.00572450
     atom  107 type  2   force =    -0.00160038    0.01716465    0.00281516
     atom  108 type  2   force =    -0.07002644   -0.08360797    0.00265256
     atom  109 type  2   force =    -0.00462330    0.01195988   -0.07159114
     atom  110 type  2   force =     0.04333181   -0.01489688   -0.07113434
     atom  111 type  2   force =     0.06990212   -0.00703827    0.06688931
     atom  112 type  2   force =     0.06895542   -0.02502276    0.02656334
     atom  113 type  2   force =     0.04560714    0.02980754    0.05354862
     atom  114 type  2   force =    -0.17322342   -0.01287600   -0.00744607
     atom  115 type  2   force =     0.10455392   -0.15789246   -0.20661064
     atom  116 type  2   force =    -0.04509712    0.16611385   -0.02263150
     atom  117 type  2   force =     0.02016708    0.23391338    0.15368502
     atom  118 type  2   force =     0.24164516   -0.18140328    0.23193350
     atom  119 type  2   force =    -0.13755168   -0.08533057    0.18610398
     atom  120 type  2   force =    -0.30227890   -0.10743488    0.28806276
     atom  121 type  2   force =     0.08964353   -0.05748250    0.10518291
     atom  122 type  2   force =    -0.16319538    0.07039682   -0.18058745
     atom  123 type  2   force =     0.07312343    0.31071361    0.18736751
     atom  124 type  2   force =    -0.00364363   -0.00672436    0.00490408
     atom  125 type  2   force =    -0.07600819    0.44366450    0.24450179
     atom  126 type  2   force =    -0.01616249    0.01188925   -0.05147290
     atom  127 type  2   force =     0.05691841    0.04730880   -0.11246742
     atom  128 type  2   force =    -0.03210713   -0.09335873    0.03242737
     atom  129 type  2   force =     0.02002793   -0.12707260   -0.06940498
     atom  130 type  2   force =    -0.49297273   -0.37680032    0.22316104
     atom  131 type  2   force =     0.05548124    0.00630431    0.01478805
     atom  132 type  2   force =    -0.01330913   -0.00303002    0.03865554
     atom  133 type  2   force =    -0.05306687    0.07864483    0.18074702
     atom  134 type  2   force =     0.06406375   -0.32395939    0.35624680
     atom  135 type  2   force =    -0.19315971    0.07985648    0.24518628
     atom  136 type  2   force =    -0.24708010    0.09131004   -0.09999216
     atom  137 type  2   force =    -0.02221798   -0.03155469    0.07048048
     atom  138 type  2   force =     0.17188550    0.02213640   -0.18490643
     atom  139 type  2   force =    -0.02744479    0.08659568    0.16709926
     atom  140 type  2   force =     0.14389598    0.06078667    0.02271862
     atom  141 type  2   force =     0.08089498   -0.11574668   -0.12050053
     atom  142 type  2   force =     0.01969396    0.03527529   -0.11528836
     atom  143 type  2   force =     0.03520540   -0.18152760    0.02125324
     atom  144 type  2   force =     0.01513174    0.03390102    0.01360713
     atom  145 type  2   force =    -0.28087663    0.07732803    0.21743776
     atom  146 type  2   force =     0.21350840   -0.39598533   -0.26359427
     atom  147 type  2   force =    -0.06000660   -0.11820699   -0.03309621
     atom  148 type  2   force =    -0.10452042   -0.23765312    0.00938956
     atom  149 type  2   force =     0.03532543   -0.05640475   -0.00157354
     atom  150 type  2   force =     0.20739640   -0.08744798    0.13388054
     atom  151 type  2   force =    -0.00836688   -0.01817644   -0.02909191
     atom  152 type  2   force =     0.12611617    0.03048872    0.08998016
     atom  153 type  2   force =    -0.04514012   -0.07370375    0.05495860
     atom  154 type  2   force =    -0.03527025   -0.00284389    0.04079552
     atom  155 type  2   force =     0.10278488    0.05736426   -0.05007082
     atom  156 type  2   force =     0.01242634   -0.05135838   -0.05806119
     atom  157 type  2   force =    -0.25134510    0.01255075    0.04353960
     atom  158 type  2   force =    -0.00464885   -0.03879597   -0.02681168
     atom  159 type  2   force =     0.01888920   -0.10988256   -0.05387744
     atom  160 type  2   force =    -0.11996696   -0.21711943    0.11989458
     atom  161 type  2   force =     0.01076447   -0.10675200    0.03619530
     atom  162 type  2   force =     0.00897476    0.03572364    0.02130994
     atom  163 type  2   force =    -0.13726717    0.05116052   -0.55618600
     atom  164 type  2   force =    -0.19675499   -0.05581094   -0.00092597
     atom  165 type  2   force =     0.00993637   -0.38042854    0.39253752
     atom  166 type  2   force =    -0.06184171    0.04043957    0.28589093
     atom  167 type  2   force =    -0.11802392   -0.01563443    0.15177505
     atom  168 type  2   force =    -0.04044775   -0.02937271   -0.04979576
     atom  169 type  2   force =     0.00199829    0.05072270   -0.04669739
     atom  170 type  2   force =     0.13580335    0.15190711    0.24406674
     atom  171 type  2   force =     0.35634131   -0.34485018   -0.12525235
     atom  172 type  2   force =     0.32436609   -0.14703874    0.14308407
     atom  173 type  2   force =     0.24259701    0.06146484    0.22123632
     atom  174 type  2   force =    -0.04502921   -0.03077890    0.00121914
     atom  175 type  2   force =    -0.04311231   -0.01476664   -0.00186756
     atom  176 type  2   force =    -0.03976020    0.03330478   -0.05094128
     atom  177 type  2   force =     0.08052109    0.01824539   -0.02660835
     atom  178 type  2   force =     0.04771357   -0.06676186    0.05122724
     atom  179 type  2   force =    -0.02220660    0.01052767    0.06466224
     atom  180 type  2   force =     0.26307339   -0.04538725    0.12939345
     atom  181 type  2   force =     0.17022463   -0.15137055    0.06860308
     atom  182 type  2   force =    -0.09760431    0.32300575    0.16448239
     atom  183 type  2   force =     0.01827924   -0.11990517   -0.06904362
     atom  184 type  2   force =    -0.09229040   -0.06674989   -0.32434879
     atom  185 type  2   force =    -0.01906892   -0.14461990   -0.04914057
     atom  186 type  2   force =    -0.15417774    0.05661362    0.38101124
     atom  187 type  2   force =     0.27664452   -0.21627236   -0.00918454
     atom  188 type  2   force =    -0.04020140   -0.02696284    0.07581295
     atom  189 type  2   force =     0.24327594    0.00403118   -0.08107984
     atom  190 type  2   force =    -0.12051893   -0.03733916   -0.03155686
     atom  191 type  2   force =    -0.05990470   -0.04423242   -0.02459989
     atom  192 type  2   force =     0.04749322   -0.05952721   -0.12840759

     Total force =     4.621371     Total SCF correction =     0.000748


     Computing stress (Cartesian axis) and pressure

          total   stress  (Ry/bohr**3)                   (kbar)     P= 1304.17
   0.00848694   0.00086574  -0.00019043       1248.47    127.35    -28.01
   0.00086574   0.00918667   0.00049220        127.35   1351.41     72.41
  -0.00019043   0.00049220   0.00892309        -28.01     72.41   1312.63


     Entering Dynamics:    iteration =    20
                           time      =   0.0020 pico-seconds


     Andersen thermostat:    4 collisions

ATOMIC_POSITIONS (crystal)
O        0.620575897   0.005775436   0.734008488
O       -0.123487802   1.035196169   0.692594579
O        0.025524138   0.663042103   0.928812686
O        1.125809466   1.104145990   0.077394858
O        0.458183880   0.781831063   0.683346150
O        0.091883925   0.722895367   1.108225363
O        0.909905663   0.320240413   0.370097102
O        1.140232790   0.731976073   0.751089827
O        1.154347014   0.216803966   0.624131658
O        0.499573490   0.531313556   0.525389286
O        0.398422756   0.736857100   0.467255022
O       -0.066706704  -0.065673241   0.500666905
O        0.270459907  -0.032010284   0.169726360
O        1.188980135   0.873503616   0.344692852
O        0.669673878   0.065762049   0.234596226
O        0.412085943   0.620777646   0.118937643
O        0.785067195   0.251863493   0.672944045
O        0.132097545   1.031059806   0.494583527
O        0.541074563   0.263887383   1.093830791
O       -0.230345844  -0.260725898   0.387393549
O        0.500854688   0.857766931   0.330427855
O        0.671210752   0.835180670   0.216035227
O        0.204204830   0.207291789   0.328538537
O       -0.401246462   0.332872704   0.807202521
O        0.911732727   0.517052596   1.262140279
O        0.651008129   0.366886547   0.248635536
O        0.136501134   0.334668377   0.033763755
O        0.743472969   0.296829219  -0.022347304
O        0.298470361   1.111393997  -0.055634653
O       -0.029600516   0.754808294   0.596224359
O        0.655716002   0.544448568   0.352428728
O        0.695928578   1.103128544   0.465077930
O        0.627665101   0.527229180   0.708008412
O        1.051967410   1.137588166  -0.196994330
O        0.363149386   0.434471173   1.021449561
O       -0.330936739   0.874193610  -0.436347009
O        0.728759801   0.362483607   0.501506872
O        0.363753064   0.345327408   0.550085557
O        0.537297031   1.244205258   0.417150676
O       -0.217310669   1.080842293   0.031057236
O        0.291306174   0.427664044   0.816379242
O        0.811546390   0.197382181   0.226096345
O        0.663080021  -0.093384435  -0.063079833
O        0.427457313   0.124298450   0.621785896
O        0.784810534   0.498281798   0.096700416
O        0.313201096  -0.116184492  -0.144189519
O        0.843403188  -0.208428199   0.871342565
O        0.991993137   0.793436747   0.292278156
O        0.426498108   0.595903849  -0.182436047
O        0.282057929   0.797302727   0.051292866
O        1.108389620   0.355175053   1.473435389
O        0.384323504   0.297538094   1.285351286
O        0.012146644   0.567266683   0.449646765
O        0.128995309   0.517381005   0.665625460
O        1.115905674   0.503025459   1.197082435
O       -0.034192757   0.969294966   1.005633343
O       -0.047682829   0.476076782   0.923992644
O        0.269879232   0.974649787   0.667807316
O        0.616291998  -0.340656665   1.094451213
O        0.341441490   0.516377497   0.298362335
O        0.443118004   0.051599452   0.284593952
O        0.831465428   0.617312037   0.739493050
O       -0.023203256   0.392547181  -0.256297443
O       -0.610801986   0.247962367   0.785171594
H        0.632266799  -0.038563025   0.828861564
H       -0.114925550   1.024376821   0.603090916
H       -0.000129710   0.574320528   0.919738681
H        1.045471176   1.053655779   0.030550692
H        0.489786144   0.683368810   0.693275648
H        1.035776699   0.690545028   1.039624119
H        1.004232425   0.313552063   0.405631017
H        1.193387306   0.738125458   0.682679780
H        1.251908307   0.243602976   0.663725138
H        0.440861376   0.445090425   0.499609104
H        0.421149735   0.651255765   0.489074025
H        0.928299356  -0.092622552   0.399586731
H        0.336133947   0.009205957   0.202141070
H        1.287138068   0.823346754   0.371382592
H        0.746911673   1.116270846   0.261121504
H        0.411621263   0.542720170   0.042480372
H        0.802769798   0.154267308   0.683883926
H        1.164448190   1.098958526   0.413240583
H        0.642978270   0.264438719   1.073384777
H       -0.123985223  -0.280663603   0.383995106
H        0.464220228   0.949958381   0.346206324
H        0.597690565   0.842134552   0.264016128
H        0.283962773   0.266264112   0.325522542
H       -0.471766777   0.295288258   0.837396228
H        0.945835812   0.574496562   0.322211308
H        0.734771270   0.322656113   0.215765977
H        0.153526872   0.229401469   0.056386756
H        0.762337021   0.349160128   0.044295362
H        0.315038371   1.012096116  -0.054251698
H       -0.082954240   0.836430006   0.572788410
H        0.592597524   0.598663918   0.280026247
H        0.797717257   1.082828387   0.478109200
H        0.609376908   0.517085261   0.607545564
H        0.975533825   1.108154103   0.748163395
H        0.410101672   0.342951247   1.034844816
H        0.720786646   0.808088716  -0.499217892
H        0.651288184   0.339718283   0.433728166
H        0.283018322   0.380440135   0.493828419
H        0.608092282   1.181360572   0.434392713
H       -0.277173439   1.098920365   0.097813419
H        0.345050706   0.337206937   0.813579067
H        0.898400980   0.195885118   0.159612523
H        0.620474609  -0.137672568   0.028120648
H        0.365736803   0.041697717   0.641507354
H        0.850857810   0.495682808   0.013214557
H        0.325300921  -0.162215598  -0.043399205
H        0.912583942  -0.240725581   0.939489288
H        1.091886259   0.805258406   0.319874046
H        0.467899091   0.608148026  -0.087526930
H        0.185406648   0.772669855   0.060716069
H        1.136736211   0.292048561   1.407550894
H        0.388337613   0.401323812   0.292270343
H        0.012464711   0.649117166   0.498183123
H        0.185290236   0.475480257   0.726321547
H        1.057216562   0.486236821   1.269564824
H       -0.101810370   0.943168151   1.060506553
H        1.028640937   0.433517389   0.979341799
H        0.200728785   0.993769236   0.605678048
H        0.639462187  -0.268182740   1.148660896
H        0.240927084   0.526686996   0.251486096
H        0.438675364   0.129486317   0.327310078
H        0.878612801   0.525146057   0.781413689
H        0.037846912   0.445048869  -0.320529234
H        0.342178511   0.191791403   0.860182373
H        0.651524606  -0.072525881   0.679210901
H       -0.189017398   0.985564637   0.718843349
H        0.116298656   1.686526797   0.880530667
H        1.179178730   1.027805296   0.131805362
H        0.427798741   0.815880180   0.770482731
H        1.095395325   0.665491744   1.177123241
H        0.857232174   0.344095161   0.446438178
H        1.048052050   0.743640507   0.723623948
H        1.109873647   0.170638483   0.703928660
H        0.566321600   0.524247475   0.455568604
H        0.380695961   0.787320298   0.552008288
H        0.028488227   0.966255802   0.501782376
H        0.295234779  -0.094173641   0.096344826
H        1.235196412   0.913549187   0.265816275
H        0.696546974  -0.026383222   0.251592166
H        0.511824622   0.646902446   0.114859541
H        0.712143699   0.268135441   0.728322216
H        0.171021060   0.972163024   0.438952238
H        0.501253478   0.178026626   1.054730506
H       -0.277517998  -0.346243747   0.387219042
H        0.459299361   0.795427596   0.396251402
H        0.743726365   0.802479686   0.269736259
H        0.155509095   0.209702437   0.233593079
H       -0.352595243   0.315224139   0.895453141
H        0.896073023   0.432565618   1.314656720
H        0.567936818   0.310533057   0.207990683
H        0.231829731   0.351482239   0.003896187
H        0.802906707   0.202966778   0.000007762
H        0.205651375   1.103164831  -0.028369299
H       -0.097079540   0.694676552   1.659899743
H        0.648903106   0.458214849   0.302627691
H        0.673946755   1.024207831   0.517516836
H        0.586286311   0.438127371   0.745010698
H        1.018414595   1.224590282   0.852629631
H        0.345014892   0.440526081   0.935565951
H       -0.416098902  -0.172707828   0.542234080
H        0.737674540   0.306035465   0.567357208
H        0.333885567   0.334199440   0.638939558
H        0.493681337   1.233909353   0.504707452
H       -0.263562592   1.008091002  -0.029374056
H        0.358984556   0.499958727   0.788782714
H        0.860025243   0.250282696   0.289024985
H        0.730360460  -0.150691692  -0.083753693
H        0.503034826   0.092186837   0.668079531
H        0.855272131   0.508670400   0.156834938
H        1.247116534  -0.180157650  -0.191706384
H        0.838479033  -0.301077415   0.819383934
H        0.995294686   0.778490652   0.190063427
H        0.505523127   0.551035148  -0.240617190
H        0.334119440   0.706590356   0.076384936
H        0.137798407   0.293268219   0.551942675
H        0.465863568   0.287642458   0.330549584
H        0.076041154   0.501781500   0.475686167
H        0.109092323   0.594354308   0.706956586
H        1.140327563   0.435105192   1.126389719
H       -0.066663377   0.951632241   0.920232982
H       -0.033896537   0.403958872   0.854439314
H        0.230878597   0.986165918   0.749267709
H        0.700647728  -0.386236777   1.106024760
H        0.408257246   0.572464441   0.223781755
H        0.538388687   0.060151470   0.258717394
H        0.740621778   0.585491929   0.708742771
H       -0.082010162   0.325344065   0.687812118
H       -0.585454263   0.197628530   0.702883684


     kinetic energy (Ekin) =    22.68973588 Ry
     temperature           = 12504.08963474 K 
     Ekin + Etot (const)   = -2158.52846397 Ry
     Ions kinetic stress =     427.72 (kbar)
                               504.22     -9.49     59.48
                                -9.49    379.78      1.21
                                59.48      1.21    399.16


     Message from routine dynamics:
     Total linear momentum <> 0

     Linear momentum :   -1.2976139410    1.4151286432    2.8390122874

     Writing output data file water3000K.save/
