 Li (110) surface config

         4 atoms

           1 atom types

   0.000000       4.8863341319      xlo xhi
   0.000000       3.45516      ylo yhi
   0.000000       4.8863341319           zlo zhi

 Atoms

           1           1  0.0000000000 0.0000000000  0.0000000000 
		   2           1  2.4431670659 1.7275800000  0.0000000000
		   3           1  2.4431670659 0.0000000000  2.4431670659
		   4           1  0.0000000000 1.7275800000  2.4431670659
