 Li (111) surface config

         12 atoms

           1 atom types

   0.000000       9.77266826434      xlo xhi
   0.000000       8.46337897967      ylo yhi
   0.000000       2.992256334141           zlo zhi

 Atoms

1    1   2.44316706608 1.41056316328 0
2    1   7.32950119825 1.41056316328 0
3    1   4.88633413217 5.64225265312 0
4    1   9.77266826434 5.64225265312 0
5    1   0 2.82112632656 0.997418778047
6    1   4.88633413217 2.82112632656 0.997418778047
7    1   2.44316706608 7.0528158164 0.997418778047
8    1   7.32950119825 7.0528158164 0.997418778047
9    1   0 0 1.99483755609
10   1   4.88633413217 0 1.99483755609
11   1   2.44316706608 4.23168948984 1.99483755609
12   1   7.32950119825 4.23168948984 1.99483755609
